LAMMPS (3 Mar 2020)
# 3d Lennard-Jones melt

units		lj
atom_style	atomic

lattice		fcc 0.8442
Lattice spacing in x,y,z = 1.6796 1.6796 1.6796
region		box block 0 10 0 10 0 10
create_box	1 box
Created orthogonal box = (0 0 0) to (16.796 16.796 16.796)
  1 by 1 by 2 MPI processor grid
create_atoms	1 box
Created 4000 atoms
  create_atoms CPU = 0.00172856 secs
mass		1 1.0

velocity	all create 3.0 87287

pair_style	lj/cut 2.5
pair_coeff	1 1 1.0 1.0 2.5

neighbor	0.3 bin
neigh_modify	every 20 delay 0 check no

fix 		1 all npt temp 300.0 300.0 100.0 iso 0.0 0.0 1000.0

#dump		id all atom 1 dump.melt

#dump		2 all image 25 image.*.jpg type type #		axes yes 0.8 0.02 view 60 -30
#dump_modify	2 pad 3

#dump		3 all movie 25 movie.mpg type type #		axes yes 0.8 0.02 view 60 -30
#dump_modify	3 pad 3

thermo		1
run		250
Neighbor list info ...
  update every 20 steps, delay 0 steps, check no
  max neighbors/atom: 2000, page size: 100000
  master list distance cutoff = 2.8
  ghost atom cutoff = 2.8
  binsize = 1.4, bins = 12 12 12
  1 neighbor lists, perpetual/occasional/extra = 1 0 0
  (1) pair lj/cut, perpetual
      attributes: half, newton on
      pair build: half/bin/atomonly/newton
      stencil: half/bin/3d/newton
      bin: standard
Per MPI rank memory allocation (min/avg/max) = 2.805 | 2.805 | 2.805 Mbytes
Step Temp E_pair E_mol TotEng Press Volume 
       0            3   -6.7733681            0   -2.2744931   -3.7033504    4738.2137 
       1    2.9951987   -6.7662407            0   -2.2745659   -3.6588262    4738.2137 
       2    2.9802109   -6.7439895            0   -2.2747907   -3.5226205    4738.2137 
       3    2.9532503   -6.7039491            0   -2.2751812   -3.2867188    4738.2137 
       4    2.9112588   -6.6412126            0   -2.2754161   -2.9370171    4738.2137 
       5    2.8498814   -6.5487251            0   -2.2749717    -2.453752    4738.2137 
       6     2.763657   -6.4191689            0   -2.2747198   -1.8155958    4738.2137 
       7     2.646778   -6.2451067            0   -2.2759322   -1.0023214    4738.2137 
       8    2.4951149   -6.0194029            0   -2.2776662 -0.0006582698    4738.2137 
       9    2.3100701   -5.7425669            0    -2.278328    1.1746166    4738.2137 
      10    2.1031864   -5.4317226            0   -2.2777316    2.4556265    4738.2137 
      11    1.8973703   -5.1217374            0   -2.2763934    3.7176325    4738.2137 
      12    1.7204574   -4.8554727            0   -2.2754318    4.8119898    4738.2137 
      13    1.5937409   -4.6661101            0   -2.2760963    5.6246265    4738.2137 
      14    1.5240854   -4.5630481            0   -2.2774916    6.1192466    4738.2137 
      15    1.5044534    -4.535546            0     -2.27943    6.3299832    4738.2137 
      16    1.5200972   -4.5609879            0   -2.2814121    6.3324501    4738.2137 
      17    1.5551772   -4.6151175            0   -2.2829349    6.2100638    4738.2137 
      18    1.5967792    -4.678352            0    -2.283782     6.032837    4738.2137 
      19    1.6361141   -4.7378098            0   -2.2842522    5.8500119    4738.2137 
      20    1.6681255   -4.7867947            0    -2.285232    5.6910219    4738.2137 
      21    1.6906322   -4.8204361            0   -2.2851218    5.5742669    4738.2137 
      22    1.7035824   -4.8396352            0   -2.2849004    5.5020556    4738.2137 
      23     1.708382   -4.8465336            0   -2.2846013    5.4699485    4738.2137 
      24    1.7071615   -4.8444474            0   -2.2843453    5.4687682    4738.2137 
      25    1.7022245   -4.8366937            0   -2.2839953    5.4881596    4738.2137 
      26    1.6957442   -4.8268849            0   -2.2839044    5.5170549    4738.2137 
      27    1.6894371   -4.8172468            0   -2.2837247    5.5474267    4738.2137 
      28    1.6841099   -4.8092742            0   -2.2837409    5.5744237    4738.2137 
      29    1.6795435   -4.8022621            0   -2.2835767    5.5992753    4738.2137 
      30    1.6750463   -4.7955955            0   -2.2836541    5.6241935    4738.2137 
      31    1.6702267   -4.7884355            0   -2.2837218    5.6511317    4738.2137 
      32    1.6653194   -4.7810689            0   -2.2837143    5.6787454    4738.2137 
      33    1.6608681   -4.7742487            0   -2.2835693    5.7042229    4738.2137 
      34    1.6572306   -4.7685177            0   -2.2832932    5.7256046    4738.2137 
      35    1.6545542   -4.7642658            0   -2.2830549    5.7417322    4738.2137 
      36    1.6531399   -4.7617975            0   -2.2827076    5.7512689    4738.2137 
      37    1.6535789   -4.7623444            0   -2.2825961    5.7506937    4738.2137 
      38     1.656431   -4.7664004            0   -2.2823751    5.7378919    4738.2137 
      39     1.661744   -4.7741084            0   -2.2821155    5.7126356    4738.2137 
      40    1.6688437   -4.7857412            0   -2.2831015    5.6762848    4738.2137 
      41    1.6764615    -4.797124            0   -2.2830604    5.6390878    4738.2137 
      42    1.6831409   -4.8069835            0   -2.2829033    5.6068395    4738.2137 
      43     1.687794   -4.8140158            0   -2.2829577    5.5845728    4738.2137 
      44     1.690099   -4.8172143            0   -2.2826996    5.5750106    4738.2137 
      45    1.6905258     -4.81763            0   -2.2824752    5.5754812    4738.2137 
      46    1.6898733   -4.8165836            0   -2.2824073    5.5819689    4738.2137 
      47    1.6885222   -4.8144433            0   -2.2822931     5.592892    4738.2137 
      48    1.6861026   -4.8110155            0   -2.2824939    5.6092641    4738.2137 
      49    1.6819848   -4.8048216            0   -2.2824752    5.6347475    4738.2137 
      50    1.6758977   -4.7955416            0   -2.2823236    5.6700861    4738.2137 
      51    1.6681162   -4.7836851            0   -2.2821363    5.7133158    4738.2137 
      52    1.6595458   -4.7706624            0    -2.281966    5.7595026    4738.2137 
      53    1.6517577    -4.758682            0   -2.2816649    5.8008383    4738.2137 
      54    1.6465083   -4.7505989            0   -2.2814539    5.8280961    4738.2137 
      55    1.6449373   -4.7479754            0   -2.2811862     5.835888    4738.2137 
      56    1.6472041   -4.7512922            0   -2.2811037    5.8231334    4738.2137 
      57    1.6525971   -4.7594408            0   -2.2811648     5.793642    4738.2137 
      58    1.6598196   -4.7703574            0   -2.2812505    5.7543669    4738.2137 
      59    1.6673597   -4.7813974            0   -2.2809831    5.7138135    4738.2137 
      60    1.6739276   -4.7923569            0   -2.2820932      5.67592    4738.2137 
      61    1.6787753   -4.7993844            0   -2.2818509    5.6493619    4738.2137 
      62    1.6817341   -4.8036747            0   -2.2817042    5.6327832    4738.2137 
      63    1.6829426   -4.8055662            0   -2.2817833    5.6254545    4738.2137 
      64    1.6824712   -4.8048063            0   -2.2817304    5.6276459    4738.2137 
      65    1.6802113   -4.8014886            0   -2.2818017    5.6393657    4738.2137 
      66    1.6762275   -4.7953936            0    -2.281681    5.6607065    4738.2137 
      67    1.6712738   -4.7876373            0   -2.2813533    5.6878688    4738.2137 
      68    1.6665778   -4.7806275            0   -2.2813858    5.7136831    4738.2137 
      69    1.6627719   -4.7750841            0   -2.2815497    5.7352373    4738.2137 
      70     1.659552   -4.7702878            0   -2.2815821    5.7543283    4738.2137 
      71    1.6564474   -4.7654703            0   -2.2814204    5.7731323    4738.2137 
      72    1.6532931   -4.7606443            0   -2.2813246    5.7918162    4738.2137 
      73    1.6502017   -4.7558871            0   -2.2812034    5.8098537    4738.2137 
      74    1.6475224   -4.7519242            0   -2.2812585    5.8250796    4738.2137 
      75    1.6458333   -4.7491332            0   -2.2810005    5.8354176    4738.2137 
      76    1.6458122   -4.7489555            0   -2.2808543     5.836806    4738.2137 
      77    1.6477886   -4.7518524            0   -2.2807874    5.8276241    4738.2137 
      78    1.6511599   -4.7568756            0    -2.280755    5.8108868    4738.2137 
      79    1.6546385   -4.7616612            0   -2.2803239    5.7937399    4738.2137 
      80    1.6573599   -4.7665045            0   -2.2810862    5.7779753    4738.2137 
      81    1.6593798   -4.7694555            0   -2.2810081    5.7670063    4738.2137 
      82    1.6610777   -4.7719001            0   -2.2809065      5.75785    4738.2137 
      83    1.6624195   -4.7738795            0   -2.2808736    5.7507851    4738.2137 
      84    1.6629665   -4.7748719            0   -2.2810457    5.7478972    4738.2137 
      85    1.6623842   -4.7738474            0   -2.2808944    5.7517089    4738.2137 
      86     1.660647   -4.7713807            0   -2.2810329    5.7612253    4738.2137 
      87     1.657916   -4.7671532            0   -2.2809009    5.7764728    4738.2137 
      88    1.6545667   -4.7619426            0    -2.280713    5.7951177    4738.2137 
      89    1.6513041   -4.7568962            0   -2.2805593    5.8134723    4738.2137 
      90    1.6489511   -4.7533491            0   -2.2805408    5.8272898    4738.2137 
      91    1.6478537   -4.7516994            0   -2.2805368    5.8350366    4738.2137 
      92    1.6474588   -4.7513173            0   -2.2807469    5.8390633    4738.2137 
      93     1.646759    -4.750343            0    -2.280822    5.8449096    4738.2137 
      94    1.6453032   -4.7479956            0   -2.2806578    5.8549882    4738.2137 
      95    1.6436713   -4.7453453            0   -2.2804548    5.8661563    4738.2137 
      96    1.6428654   -4.7438555            0   -2.2801735    5.8735921    4738.2137 
      97    1.6433042     -4.74449            0   -2.2801499    5.8746402    4738.2137 
      98    1.6445022   -4.7461772            0   -2.2800406    5.8721305    4738.2137 
      99    1.6455735    -4.747727            0   -2.2799839    5.8699446    4738.2137 
     100    1.6458634   -4.7492486            0   -2.2810706    5.8692261    4738.2137 
     101    1.6452472   -4.7485975            0   -2.2813438    5.8737194    4738.2137 
     102    1.6442703   -4.7470287            0   -2.2812399    5.8799366    4738.2137 
     103    1.6439743   -4.7462688            0   -2.2809239    5.8825066    4738.2137 
     104    1.6451817   -4.7480417            0   -2.2808862    5.8766592    4738.2137 
     105    1.6478666   -4.7522283            0   -2.2810464    5.8628122    4738.2137 
     106    1.6511812   -4.7573349            0   -2.2811822    5.8456828    4738.2137 
     107    1.6538941   -4.7614489            0   -2.2812279    5.8315943    4738.2137 
     108    1.6548475   -4.7630179            0   -2.2813672    5.8260727    4738.2137 
     109    1.6533442   -4.7607833            0    -2.281387    5.8330347    4738.2137 
     110    1.6494613   -4.7547989            0   -2.2812255    5.8522864    4738.2137 
     111    1.6441216   -4.7467023            0   -2.2811365    5.8788772    4738.2137 
     112    1.6388124   -4.7385184            0   -2.2809144     5.905813    4738.2137 
     113    1.6350899    -4.732745            0   -2.2807233    5.9251022    4738.2137 
     114    1.6339837    -4.730881            0   -2.2805181    5.9316467    4738.2137 
     115     1.635481   -4.7333784            0   -2.2807702    5.9245784    4738.2137 
     116    1.6384414   -4.7379731            0   -2.2809255    5.9102823    4738.2137 
     117    1.6412009   -4.7422559            0     -2.28107    5.8966976    4738.2137 
     118    1.6426194   -4.7441018            0   -2.2807888    5.8901285    4738.2137 
     119    1.6427677   -4.7440621            0   -2.2805266    5.8895469    4738.2137 
     120    1.6426508   -4.7448058            0   -2.2814457     5.888197    4738.2137 
     121    1.6432527   -4.7455719            0   -2.2813091    5.8850697    4738.2137 
     122    1.6448701   -4.7478538            0   -2.2811655    5.8769318    4738.2137 
     123    1.6472211   -4.7515532            0   -2.2813392    5.8646626    4738.2137 
     124    1.6498961   -4.7552938            0   -2.2810683    5.8516307    4738.2137 
     125    1.6524899   -4.7590899            0   -2.2809748    5.8388813    4738.2137 
     126    1.6544419   -4.7622658            0   -2.2812234    5.8290453    4738.2137 
     127    1.6552108   -4.7634468            0   -2.2812513    5.8259127    4738.2137 
     128    1.6546636    -4.762488            0   -2.2811132    5.8301452    4738.2137 
     129    1.6529964   -4.7598194            0   -2.2809447    5.8405395    4738.2137 
     130    1.6503104   -4.7558189            0   -2.2809721    5.8561233    4738.2137 
     131     1.646494   -4.7499566            0    -2.280833    5.8778497    4738.2137 
     132    1.6415822   -4.7424809            0   -2.2807232    5.9049819    4738.2137 
     133    1.6363383   -4.7344367            0   -2.2805428    5.9337866    4738.2138 
     134     1.632342   -4.7282559            0    -2.280355    5.9562752    4738.2138 
     135    1.6309178   -4.7260141            0    -2.280249    5.9657125    4738.2138 
     136    1.6320549   -4.7276227            0   -2.2801523    5.9623063    4738.2138 
     137    1.6346124   -4.7313555            0   -2.2800499    5.9516766    4738.2138 
     138    1.6371359   -4.7350147            0   -2.2799248    5.9410238    4738.2138 
     139    1.6385808   -4.7368945            0   -2.2796377    5.9357844    4738.2138 
     140    1.6385785    -4.737861            0   -2.2806077    5.9354598    4738.2138 
     141    1.6371507   -4.7355463            0   -2.2804342    5.9439908    4738.2138 
     142     1.634564   -4.7316472            0   -2.2804142    5.9577939    4738.2138 
     143    1.6314757   -4.7268133            0   -2.2802115    5.9740764    4738.2138 
     144    1.6288797    -4.722687            0   -2.2799782    5.9875533    4738.2138 
     145    1.6277034   -4.7209842            0   -2.2800395    5.9930049    4738.2138 
     146     1.628241   -4.7219194            0   -2.2801684    5.9892944    4738.2138 
     147    1.6298865   -4.7247493            0   -2.2805308    5.9791098    4738.2138 
     148    1.6315362   -4.7273276            0   -2.2806352    5.9687805    4738.2138 
     149    1.6324041   -4.7285551            0   -2.2805611    5.9622001    4738.2138 
     150    1.6325153   -4.7286378            0    -2.280477    5.9592107    4738.2138 
     151    1.6324378   -4.7286734            0   -2.2806288    5.9568939    4738.2138 
     152    1.6326087   -4.7289451            0   -2.2806444    5.9539826    4738.2138 
     153     1.632927   -4.7292894            0   -2.2805113    5.9511469    4738.2138 
     154    1.6328044   -4.7291416            0   -2.2805473    5.9507561    4738.2138 
     155    1.6315751   -4.7274921            0   -2.2807413    5.9560531    4738.2138 
     156    1.6290799   -4.7234738            0   -2.2804649     5.968758    4738.2138 
     157    1.6257959   -4.7183479            0   -2.2802637    5.9854075    4738.2138 
     158     1.622606   -4.7132669            0   -2.2799664    6.0018835    4738.2138 
     159    1.6208157   -4.7102421            0   -2.2796264    6.0115744    4738.2138 
     160    1.6215497   -4.7121318            0   -2.2804153    6.0068327    4738.2138 
     161    1.6246455   -4.7166824            0   -2.2803235    5.9916842    4738.2138 
     162    1.6287394   -4.7230495            0   -2.2805512    5.9706147    4738.2138 
     163    1.6324536   -4.7286579            0   -2.2805896    5.9511199    4738.2138 
     164    1.6352771   -4.7327776            0   -2.2804752    5.9356216    4738.2138 
     165    1.6375289   -4.7359272            0    -2.280248    5.9225821    4738.2138 
     166    1.6397762   -4.7392123            0   -2.2801629    5.9089646    4738.2138 
     167    1.6423119   -4.7432941            0   -2.2804421    5.8931502    4738.2138 
     168    1.6450153   -4.7471921            0   -2.2802861    5.8772702    4738.2138 
     169      1.64754   -4.7510448            0   -2.2803527    5.8620538    4738.2138 
     170    1.6494652   -4.7540918            0   -2.2805125    5.8498478    4738.2138 
     171     1.650416    -4.755424            0   -2.2804189    5.8431479    4738.2138 
     172    1.6504209   -4.7552836            0   -2.2802711    5.8415075    4738.2138 
     173     1.650049    -4.754656            0   -2.2802012    5.8418863    4738.2138 
     174    1.6499447   -4.7543756            0   -2.2800772     5.841317    4738.2138 
     175    1.6502864   -4.7551709            0   -2.2803601    5.8381372    4738.2138 
     176    1.6507611   -4.7558222            0   -2.2802996     5.835105    4738.2138 
     177     1.650855   -4.7557232            0   -2.2800597    5.8343748    4738.2138 
     178    1.6501376   -4.7544705            0   -2.2798829    5.8375913    4738.2138 
     179    1.6486182   -4.7520217            0   -2.2797126    5.8447876    4738.2138 
     180    1.6468849    -4.750122            0   -2.2804122    5.8516331    4738.2138 
     181    1.6455978    -4.748511            0   -2.2807314    5.8569063    4738.2138 
     182    1.6449377    -4.747517            0   -2.2807274    5.8594924    4738.2138 
     183    1.6447125   -4.7473675            0   -2.2809154    5.8593011    4738.2138 
     184    1.6446417   -4.7474842            0   -2.2811384    5.8577892    4738.2138 
     185    1.6444416   -4.7471663            0   -2.2811205    5.8566977    4738.2138 
     186    1.6439333   -4.7463125            0    -2.281029    5.8565679    4738.2138 
     187    1.6432858   -4.7451144            0   -2.2808019    5.8566962    4738.2138 
     188    1.6431297   -4.7449279            0   -2.2808496     5.853387    4738.2138 
     189     1.644207   -4.7464689            0   -2.2807751    5.8438061    4738.2138 
     190    1.6468006   -4.7503817            0   -2.2807984    5.8264362    4738.2138 
     191    1.6505895   -4.7560618            0   -2.2807965    5.8033851    4738.2138 
     192    1.6549466   -4.7626318            0   -2.2808326    5.7779586    4738.2138 
     193    1.6591156   -4.7689213            0     -2.28087    5.7541925    4738.2138 
     194    1.6621731   -4.7736083            0   -2.2809719    5.7366756    4738.2138 
     195    1.6632524   -4.7753205            0   -2.2810656     5.729865    4738.2138 
     196    1.6622178   -4.7734574            0    -2.280754    5.7350939    4738.2138 
     197    1.6601452    -4.769988            0   -2.2803927    5.7464207    4738.2138 
     198    1.6588753   -4.7676972            0   -2.2800063     5.754678    4738.2138 
     199    1.6598526   -4.7689673            0   -2.2798109    5.7523222    4738.2138 
     200    1.6631792   -4.7750103            0   -2.2808652    5.7369678    4738.2138 
     201    1.6674467   -4.7816494            0   -2.2811046    5.7188146    4738.2138 
     202    1.6706243   -4.7865063            0   -2.2811963    5.7065428    4738.2138 
     203    1.6714256   -4.7876074            0   -2.2810957    5.7064433    4738.2138 
     204    1.6698323   -4.7851412            0   -2.2810189    5.7181482    4738.2138 
     205    1.6665893   -4.7801092            0   -2.2808501    5.7381264    4738.2138 
     206    1.6626226    -4.774064            0   -2.2807535    5.7614833    4738.2138 
     207    1.6588417   -4.7682578            0   -2.2806173    5.7838152    4738.2138 
     208    1.6559699   -4.7638676            0   -2.2805337    5.8013174    4738.2138 
     209    1.6543037   -4.7614984            0   -2.2806631    5.8122501    4738.2138 
     210    1.6535669   -4.7605806            0   -2.2808504    5.8182344    4738.2138 
     211    1.6529593   -4.7596888            0   -2.2808698    5.8235986    4738.2139 
     212    1.6515624   -4.7578197            0   -2.2810954    5.8322294    4738.2139 
     213    1.6490315   -4.7540013            0   -2.2810725    5.8465553    4738.2139 
     214    1.6460005    -4.749197            0   -2.2808134    5.8634285    4738.2139 
     215    1.6437718    -4.745945            0   -2.2809037    5.8754893    4738.2139 
     216    1.6435487   -4.7456189            0   -2.2809122    5.8775943    4738.2139 
     217    1.6456488   -4.7486627            0   -2.2808067    5.8682267    4738.2139 
     218    1.6491365   -4.7538841            0   -2.2807978    5.8516182    4738.2139 
     219    1.6524003   -4.7587767            0    -2.280796    5.8358131    4738.2139 
     220    1.6541291   -4.7622288            0   -2.2816555    5.8258567    4738.2139 
     221    1.6538717   -4.7618009            0   -2.2816135      5.82702    4738.2139 
     222     1.652155   -4.7591563            0   -2.2815434    5.8352975    4738.2139 
     223    1.6500579   -4.7559196            0   -2.2814515    5.8454192    4738.2139 
     224    1.6484728   -4.7537204            0   -2.2816293    5.8525435    4738.2139 
     225    1.6478476   -4.7526715            0   -2.2815181    5.8554311    4738.2139 
     226    1.6483814   -4.7535284            0   -2.2815743    5.8523471    4738.2139 
     227    1.6500369   -4.7560925            0   -2.2816559    5.8437498    4738.2139 
     228    1.6523031   -4.7595139            0   -2.2816789     5.832357    4738.2139 
     229    1.6542227    -4.762368            0   -2.2816543    5.8229216    4738.2139 
     230     1.654853   -4.7633247            0   -2.2816658    5.8199474    4738.2139 
     231    1.6537833   -4.7616425            0   -2.2815877    5.8256281    4738.2139 
     232    1.6513306   -4.7577811            0   -2.2814044     5.838376    4738.2139 
     233    1.6482385   -4.7530817            0    -2.281342    5.8540679    4738.2139 
     234    1.6451635    -4.748453            0   -2.2813248    5.8695462    4738.2139 
     235    1.6425445    -4.744387            0   -2.2811861    5.8829185    4738.2139 
     236    1.6406839   -4.7415929            0   -2.2811823    5.8922937    4738.2139 
     237    1.6394992   -4.7395742            0   -2.2809402    5.8987787    4738.2139 
     238    1.6382724   -4.7377992            0   -2.2810049    5.9050922    4738.2139 
     239    1.6359926   -4.7341706            0   -2.2807953     5.917269    4738.2139 
     240    1.6320821   -4.7290369            0   -2.2815257     5.936165    4738.2139 
     241    1.6267529   -4.7208698            0   -2.2813505     5.963796    4738.2139 
     242    1.6208651      -4.7118            0   -2.2811101    5.9943794    4738.2139 
     243     1.615543   -4.7037904            0   -2.2810817    6.0217579    4738.2139 
     244    1.6117196    -4.697919            0    -2.280944    6.0416763    4738.2139 
     245    1.6098901   -4.6950671            0   -2.2808357    6.0512777    4738.2139 
     246    1.6102108   -4.6956304            0   -2.2809181    6.0494344    4738.2139 
     247     1.612685   -4.6994289            0   -2.2810062    6.0364486    4738.2139 
     248    1.6170589   -4.7060807            0   -2.2810988    6.0136463    4738.2139 
     249     1.622515   -4.7144231            0    -2.281259    5.9850367    4738.2139 
     250      1.62768    -4.722335            0   -2.2814254     5.957543    4738.2139 
Loop time of 0.462538 on 2 procs for 250 steps with 4000 atoms

Performance: 233494.078 tau/day, 540.496 timesteps/s
98.6% CPU use with 2 MPI tasks x no OpenMP threads

MPI task timing breakdown:
Section |  min time  |  avg time  |  max time  |%varavg| %total
---------------------------------------------------------------
Pair    | 0.37276    | 0.38182    | 0.39089    |   1.5 | 82.55
Neigh   | 0.03404    | 0.034162   | 0.034283   |   0.1 |  7.39
Comm    | 0.013486   | 0.022402   | 0.031317   |   6.0 |  4.84
Output  | 0.0032034  | 0.0039309  | 0.0046583  |   1.2 |  0.85
Modify  | 0.018162   | 0.018686   | 0.01921    |   0.4 |  4.04
Other   |            | 0.001535   |            |       |  0.33

Nlocal:    2000 ave 2006 max 1994 min
Histogram: 1 0 0 0 0 0 0 0 0 1
Nghost:    3942 ave 3967 max 3917 min
Histogram: 1 0 0 0 0 0 0 0 0 1
Neighs:    75758.5 ave 77058 max 74459 min
Histogram: 1 0 0 0 0 0 0 0 0 1

Total # of neighbors = 151517
Ave neighs/atom = 37.8792
Neighbor list builds = 12
Dangerous builds not checked
Total wall time: 0:00:00
