ITEM: TIMESTEP
0
ITEM: NUMBER OF ATOMS
512
ITEM: BOX BOUNDS pp pp pp
0.0000000000000000e+00 1.6795961913825074e+01
0.0000000000000000e+00 1.6795961913825074e+01
0.0000000000000000e+00 1.6795961913825074e+01
ITEM: ATOMS id type xs ys zs
6 1 0.200233 0.084566 0.0289563
167 1 0.241825 0.0323781 0.0418723
66 1 0.212699 0.0677979 0.0913966
150 1 0.520692 0.0285859 0.041354
59 1 0.480186 0.0743494 0.0740319
264 1 0.488933 0.0137839 0.0985551
8 1 0.262112 0.0961164 0.0567769
111 1 0.235212 0.138464 0.0137248
67 1 0.0922306 0.185419 0.0824979
251 1 0.608053 0.266409 0.0746701
231 1 0.85165 0.226466 0.0863276
70 1 0.244814 0.308367 0.0199713
130 1 0.441565 0.288548 0.0342176
151 1 0.519541 0.329934 0.0728259
197 1 0.501272 0.307212 0.0115392
34 1 0.555078 0.345101 0.0197472
137 1 0.552806 0.282065 0.0431783
127 1 0.588376 0.330182 0.0757114
133 1 0.609798 0.304161 0.0191119
79 1 0.180419 0.40756 0.0915228
97 1 0.115283 0.419299 0.097058
166 1 0.615496 0.369118 0.0300382
227 1 0.152688 0.457298 0.0540049
164 1 0.12992 0.52046 0.046205
194 1 0.174154 0.507163 0.0908531
185 1 0.108228 0.48473 0.09597
344 1 0.193514 0.506634 0.0295459
180 1 0.675889 0.511431 0.079847
78 1 0.129752 0.614017 0.0957552
104 1 0.142132 0.618983 0.0306164
205 1 0.0983874 0.576426 0.0532917
142 1 0.170083 0.568924 0.0626026
95 1 0.208961 0.619308 0.0452244
39 1 0.0864998 0.643827 0.0576323
144 1 0.166253 0.664543 0.0698805
138 1 0.179761 0.662746 0.00390582
54 1 0.176311 0.722196 0.0340142
213 1 0.127175 0.717168 0.0780331
313 1 0.122975 0.683895 0.0220467
3 1 0.22563 0.682209 0.0464835
73 1 0.248784 0.643594 0.0941018
91 1 0.276776 0.64351 0.0342175
242 1 0.280139 0.710228 0.0243458
170 1 0.0834926 0.764204 0.0670267
378 1 0.118506 0.749149 0.0135397
71 1 0.15095 0.777198 0.0620751
140 1 0.10371 0.81452 0.0306669
256 1 0.112746 0.817763 0.0966154
103 1 0.0668021 0.872099 0.0328962
186 1 0.0512677 0.821374 0.0737071
258 1 0.391818 0.0346249 0.160497
26 1 0.429343 0.0517791 0.10828
27 1 0.447269 0.000926686 0.146037
109 1 0.447677 0.0383036 0.198589
148 1 0.482631 0.0608987 0.144784
92 1 0.537781 0.0597529 0.100967
236 1 0.86123 0.0409009 0.135934
82 1 0.890084 0.0388767 0.194599
4 1 0.836599 0.000493592 0.183067
212 1 0.927949 0.0383431 0.138814
234 1 0.944253 0.00108227 0.192143
216 1 0.950588 0.0676239 0.193696
36 1 0.316664 0.125 0.117652
176 1 0.343113 0.152564 0.17355
248 1 0.359324 0.091741 0.156673
239 1 0.426515 0.0911751 0.164586
240 1 0.0871797 0.212373 0.143482
200 1 0.31941 0.191964 0.125196
47 1 0.863872 0.184673 0.136904
72 1 0.828051 0.240074 0.146837
238 1 0.8946 0.243311 0.13401
158 1 0.872287 0.220511 0.192738
241 1 0.554462 0.286069 0.109973
41 1 0.64314 0.303998 0.114791
42 1 0.651462 0.300933 0.181512
257 1 0.704109 0.29051 0.143328
245 1 0.676861 0.351229 0.146008
229 1 0.711279 0.328398 0.198361
85 1 0.867953 0.286618 0.176038
22 1 0.158818 0.457442 0.128286
101 1 0.360994 0.519257 0.10212
99 1 0.297056 0.503195 0.110569
252 1 0.633989 0.52249 0.130059
168 1 0.585176 0.50117 0.169806
190 1 0.64041 0.529508 0.19573
19 1 0.911065 0.538227 0.136829
232 1 0.126433 0.548925 0.107517
23 1 0.19184 0.616675 0.108483
136 1 0.207834 0.555019 0.116307
123 1 0.273309 0.566001 0.11081
24 1 0.325932 0.547866 0.151876
217 1 0.930371 0.59387 0.169386
161 1 0.065255 0.783231 0.127252
93 1 0.317275 0.792078 0.195503
48 1 0.44498 0.795508 0.170178
230 1 0.775926 0.799715 0.150142
126 1 0.831123 0.770948 0.168625
88 1 0.738457 0.836311 0.109806
61 1 0.803932 0.839971 0.105693
1 1 0.769509 0.865231 0.160332
198 1 0.83091 0.837229 0.165436
210 1 0.822129 0.896151 0.135149
87 1 0.405267 0.979543 0.193028
235 1 0.893087 0.9851 0.15283
147 1 0.854537 0.936567 0.177269
267 1 0.995461 0.0760452 0.242742
38 1 0.0104674 0.135773 0.21783
43 1 0.0340494 0.176643 0.265393
165 1 0.143 0.139484 0.295494
172 1 0.430054 0.0920007 0.232486
250 1 0.492586 0.112822 0.226812
149 1 0.528796 0.105511 0.283839
143 1 0.465094 0.103647 0.288997
187 1 0.946846 0.121013 0.232371
21 1 0.990328 0.129928 0.281329
211 1 0.970635 0.181803 0.243263
215 1 0.702381 0.263195 0.20484
108 1 0.636802 0.265722 0.286152
262 1 0.450681 0.359865 0.235667
37 1 0.389987 0.338211 0.253957
121 1 0.6706 0.305799 0.245102
20 1 0.359249 0.385934 0.291685
237 1 0.398837 0.402263 0.239841
98 1 0.425532 0.375814 0.295624
154 1 0.511794 0.452152 0.285429
62 1 0.458247 0.421641 0.260675
254 1 0.148155 0.465962 0.251917
56 1 0.421743 0.499966 0.293486
49 1 0.576115 0.465753 0.28846
120 1 0.595541 0.500436 0.235584
117 1 0.93234 0.534154 0.201067
116 1 0.342539 0.556335 0.217927
134 1 0.341575 0.576554 0.282492
135 1 0.395255 0.548403 0.256906
249 1 0.448709 0.562566 0.290702
233 1 0.399982 0.608648 0.290072
113 1 0.462073 0.62914 0.29919
195 1 0.328715 0.788619 0.260772
115 1 0.667362 0.788591 0.29513
89 1 0.27958 0.830516 0.276777
220 1 0.813891 0.890614 0.202329
76 1 0.887803 0.976771 0.218381
131 1 0.3661 0.0769733 0.356446
160 1 0.775266 0.00563251 0.384747
86 1 0.034568 0.149686 0.32729
224 1 0.0121787 0.132892 0.395648
246 1 0.141004 0.118954 0.358535
146 1 0.336861 0.12433 0.393129
141 1 0.403342 0.125168 0.383622
207 1 0.463708 0.118298 0.355163
84 1 0.971702 0.138686 0.343867
122 1 0.950381 0.105293 0.396523
155 1 0.0442898 0.215063 0.31885
159 1 0.00539438 0.192569 0.368668
263 1 0.760662 0.188508 0.36165
162 1 0.983938 0.191059 0.306546
192 1 0.0659976 0.331082 0.394775
30 1 0.123074 0.36169 0.383706
31 1 0.156787 0.430871 0.307127
75 1 0.17332 0.399293 0.362132
80 1 0.239986 0.393577 0.356916
196 1 0.300438 0.411857 0.328889
57 1 0.775288 0.426372 0.366222
199 1 0.835409 0.448058 0.379025
18 1 0.242605 0.458502 0.36687
228 1 0.343062 0.511626 0.301892
69 1 0.308983 0.472751 0.346426
106 1 0.336138 0.530595 0.364571
139 1 0.283243 0.502712 0.398787
175 1 0.444795 0.529353 0.348003
173 1 0.387921 0.493192 0.349897
13 1 0.536231 0.482076 0.33929
202 1 0.487939 0.511185 0.302425
96 1 0.569711 0.513215 0.386923
181 1 0.602124 0.469564 0.349566
105 1 0.633797 0.520217 0.374498
15 1 0.676444 0.466745 0.392117
188 1 0.698314 0.531204 0.376879
46 1 0.733126 0.47735 0.36316
152 1 0.795503 0.483872 0.339058
129 1 0.388118 0.552617 0.322132
177 1 0.411557 0.622617 0.398198
132 1 0.432989 0.593112 0.345736
17 1 0.396129 0.556 0.385697
243 1 0.656631 0.576894 0.397283
221 1 0.413384 0.655449 0.339382
7 1 0.436501 0.683783 0.399247
64 1 0.472459 0.640849 0.364375
223 1 0.658985 0.709285 0.376054
183 1 0.666928 0.640385 0.373421
225 1 0.970448 0.65546 0.304553
163 1 0.0483803 0.790755 0.341958
145 1 0.0849495 0.809275 0.39223
9 1 0.0942996 0.749378 0.369383
16 1 0.145825 0.784192 0.398471
156 1 0.314954 0.800536 0.325173
50 1 0.60785 0.814398 0.312042
226 1 0.629504 0.757171 0.339479
114 1 0.597411 0.803164 0.37613
204 1 0.658828 0.816012 0.354637
44 1 0.0722258 0.85366 0.348404
255 1 0.0237154 0.829143 0.390492
112 1 0.0356302 0.894269 0.38645
208 1 0.133663 0.85072 0.384939
214 1 0.238812 0.871726 0.310041
35 1 0.348788 0.0339481 0.404757
157 1 0.863573 0.019804 0.464049
29 1 0.457802 0.13833 0.419586
28 1 0.509032 0.112826 0.453862
206 1 0.543501 0.167755 0.469689
364 1 0.478525 0.16862 0.475107
60 1 0.593561 0.128617 0.485131
261 1 0.268149 0.196636 0.47444
259 1 0.406972 0.259047 0.493814
40 1 0.600198 0.196737 0.483884
222 1 0.607048 0.223015 0.423087
11 1 0.807572 0.331434 0.414877
124 1 0.0907041 0.373335 0.441829
247 1 0.054796 0.414164 0.402908
128 1 0.0250309 0.390502 0.456811
55 1 0.143235 0.41254 0.420711
260 1 0.0916896 0.438048 0.45175
458 1 0.133617 0.400631 0.484217
218 1 0.210399 0.418951 0.413092
52 1 0.182807 0.442449 0.468557
331 1 0.624514 0.429883 0.482571
2 1 0.759213 0.375395 0.405437
14 1 0.733252 0.436419 0.4156
33 1 0.798334 0.422411 0.429506
77 1 0.864091 0.412012 0.427004
171 1 0.0288385 0.45641 0.451628
244 1 0.425299 0.501214 0.403896
511 1 0.402334 0.45986 0.449816
203 1 0.615247 0.472287 0.415554
25 1 0.604162 0.540034 0.434008
350 1 0.595605 0.488331 0.474982
302 1 0.693894 0.529481 0.487398
189 1 0.725037 0.49943 0.42842
193 1 0.662592 0.516085 0.433505
58 1 0.783842 0.481146 0.405196
81 1 0.83904 0.473566 0.439243
355 1 0.652581 0.5746 0.460956
446 1 0.641793 0.634929 0.483247
507 1 0.712107 0.563025 0.433474
253 1 0.685829 0.622984 0.433708
402 1 0.701484 0.602594 0.492687
184 1 0.642736 0.67104 0.42793
119 1 0.694421 0.672376 0.474559
265 1 0.707924 0.679083 0.409156
32 1 0.675714 0.726206 0.44087
51 1 0.947879 0.684155 0.449438
209 1 0.993289 0.726912 0.428242
118 1 0.0390547 0.765926 0.402096
102 1 0.0532065 0.812171 0.448283
288 1 0.0409249 0.750688 0.468249
100 1 0.153746 0.770544 0.464784
74 1 0.0936505 0.786631 0.494204
174 1 0.0959304 0.760722 0.434705
110 1 0.649464 0.770516 0.401085
463 1 0.0822352 0.853112 0.490668
268 1 0.119857 0.823746 0.445419
182 1 0.763828 0.895855 0.456613
432 1 0.820104 0.896598 0.490264
53 1 0.333528 0.975899 0.435665
179 1 0.35415 0.971589 0.499292
107 1 0.38633 0.938342 0.451328
63 1 0.448761 0.934547 0.473926
45 1 0.781342 0.951768 0.48498
10 1 0.814232 0.927794 0.430908
125 1 0.755075 0.955416 0.422896
219 1 0.807115 0.993296 0.441537
68 1 0.847191 0.957357 0.480235
280 1 0.629887 0.0520532 0.541693
416 1 0.693562 0.0546219 0.562622
153 1 0.675968 0.0804348 0.503166
408 1 0.836541 0.00332983 0.52396
275 1 0.871981 0.0573531 0.518492
297 1 0.832389 0.0490117 0.573571
415 1 0.158667 0.161136 0.583557
90 1 0.146956 0.157293 0.517712
438 1 0.206461 0.139877 0.540246
445 1 0.261798 0.117258 0.569832
273 1 0.223622 0.163469 0.599726
272 1 0.456711 0.154376 0.535353
5 1 0.516904 0.129753 0.517104
489 1 0.568038 0.167156 0.534316
269 1 0.633376 0.160548 0.527409
381 1 0.591395 0.10635 0.546091
468 1 0.61189 0.151404 0.588938
494 1 0.656714 0.109848 0.560209
397 1 0.0819205 0.365613 0.560087
362 1 0.0199952 0.370852 0.534331
373 1 0.0492128 0.424709 0.561322
178 1 0.00959862 0.430078 0.509106
451 1 0.0701382 0.394423 0.500302
502 1 0.112192 0.421465 0.542949
342 1 0.174891 0.419994 0.529499
471 1 0.153875 0.398643 0.58745
348 1 0.235874 0.437008 0.513794
337 1 0.212864 0.445828 0.577286
357 1 0.984143 0.413774 0.572062
472 1 0.0677232 0.459457 0.506643
493 1 0.0890349 0.479666 0.563538
435 1 0.0845984 0.545278 0.569447
83 1 0.132748 0.466714 0.503971
512 1 0.140116 0.519588 0.544496
459 1 0.150072 0.46163 0.572942
420 1 0.192014 0.484063 0.526405
478 1 0.191044 0.510749 0.588619
339 1 0.630821 0.534171 0.505098
349 1 0.226517 0.697873 0.568109
444 1 0.343543 0.640052 0.531325
345 1 0.185435 0.736922 0.514444
488 1 0.570254 0.816288 0.581664
328 1 0.630303 0.841994 0.569879
317 1 0.675703 0.839278 0.518695
377 1 0.681294 0.881369 0.57158
453 1 0.830192 0.879593 0.554852
394 1 0.894407 0.870861 0.565789
447 1 0.25222 0.96922 0.51447
307 1 0.372079 0.962803 0.563044
356 1 0.397974 0.924053 0.515889
426 1 0.818158 0.942338 0.53915
399 1 0.877555 0.914827 0.519923
326 1 0.867745 0.93223 0.580728
341 1 0.0390672 0.0536858 0.686482
298 1 0.73575 0.0205602 0.680882
505 1 0.0837281 0.124938 0.682499
400 1 0.114985 0.166396 0.63463
479 1 0.178336 0.150208 0.646525
278 1 0.421046 0.143177 0.67606
470 1 0.601067 0.232478 0.681875
440 1 0.708339 0.413833 0.665379
509 1 0.773369 0.42102 0.679803
499 1 0.820497 0.376569 0.668584
413 1 0.826104 0.439003 0.644963
427 1 0.879431 0.405881 0.664576
332 1 0.925709 0.452885 0.667219
503 1 0.928634 0.409401 0.61611
389 1 0.982837 0.445708 0.63223
467 1 0.127119 0.512275 0.608841
473 1 0.419629 0.52955 0.651037
315 1 0.469177 0.510781 0.609743
475 1 0.866338 0.47433 0.683442
437 1 0.900126 0.544706 0.667624
423 1 0.206203 0.550378 0.644218
299 1 0.265222 0.583841 0.660619
370 1 0.337998 0.545884 0.697614
321 1 0.343433 0.608101 0.677853
481 1 0.398777 0.575168 0.694395
391 1 0.856963 0.595709 0.650659
480 1 0.259084 0.658072 0.619301
418 1 0.346421 0.673332 0.669235
369 1 0.286963 0.643553 0.678358
292 1 0.788707 0.704018 0.639489
276 1 0.827369 0.65085 0.623705
412 1 0.0127649 0.815511 0.676482
482 1 0.0166662 0.750291 0.694414
395 1 0.14827 0.788024 0.645462
429 1 0.353637 0.873511 0.660522
487 1 0.362595 0.917226 0.610884
333 1 0.386786 0.930046 0.672163
334 1 0.406934 0.966068 0.61994
358 1 0.00715545 0.00147467 0.715751
498 1 0.0384239 0.0466989 0.753099
361 1 0.577206 0.0784639 0.722229
392 1 0.698171 0.0187729 0.736075
318 1 0.63957 0.0767988 0.749863
300 1 0.707705 0.0640795 0.782152
325 1 0.655679 0.0262475 0.789002
485 1 0.758175 0.0536342 0.733775
327 1 0.814634 0.0121138 0.757224
295 1 0.765598 0.0362064 0.793649
406 1 0.875129 0.0375357 0.784137
414 1 0.818421 0.073909 0.778216
330 1 0.981736 0.061897 0.718836
336 1 0.98114 0.0232204 0.773791
314 1 0.993621 0.0886821 0.778271
404 1 0.932273 0.067754 0.762402
270 1 0.0322075 0.106477 0.725238
497 1 0.371842 0.126458 0.71809
454 1 0.423494 0.162853 0.739892
379 1 0.600247 0.132814 0.752331
285 1 0.760098 0.102957 0.778056
284 1 0.542737 0.245663 0.711635
279 1 0.577425 0.191198 0.728747
294 1 0.599785 0.251802 0.745784
510 1 0.250469 0.311883 0.791998
383 1 0.863407 0.370262 0.718706
353 1 0.829871 0.427231 0.71051
465 1 0.851129 0.410802 0.770665
316 1 0.894907 0.427424 0.72368
442 1 0.959332 0.435139 0.721348
371 1 0.864259 0.53228 0.71932
411 1 0.85603 0.474181 0.749859
293 1 0.916437 0.487551 0.722992
428 1 0.229801 0.594316 0.715685
421 1 0.295566 0.592382 0.720271
354 1 0.357505 0.591216 0.74277
449 1 0.349047 0.635966 0.791439
366 1 0.884759 0.596604 0.710261
368 1 0.928256 0.551035 0.728102
464 1 0.945982 0.613552 0.734016
282 1 0.329645 0.64926 0.728842
322 1 0.618818 0.717981 0.770873
388 1 0.552654 0.718169 0.769404
448 1 0.650935 0.683126 0.724477
424 1 0.902442 0.661582 0.720787
367 1 0.0217219 0.797507 0.738149
338 1 0.0742105 0.81805 0.770606
305 1 0.987879 0.74535 0.757023
456 1 0.963602 0.78623 0.710662
504 1 0.966305 0.805211 0.773799
508 1 0.0466979 0.855257 0.721924
462 1 0.0163881 0.847285 0.781666
436 1 0.95324 0.868773 0.782185
484 1 0.98144 0.848883 0.725265
433 1 0.478056 0.953321 0.785263
374 1 0.714688 0.994892 0.795813
500 1 0.00331553 0.0086767 0.885464
460 1 0.24278 0.0887919 0.806411
452 1 0.261999 0.0185632 0.842851
309 1 0.23562 0.073402 0.868786
380 1 0.28889 0.0440758 0.896221
496 1 0.45737 0.0104278 0.850275
386 1 0.724727 0.0405942 0.843121
417 1 0.783772 0.081273 0.835542
486 1 0.781047 0.0294376 0.87493
351 1 0.822483 0.0253742 0.823298
382 1 0.934235 0.0332591 0.819439
372 1 0.951143 0.0510624 0.880703
431 1 0.997884 0.0494038 0.832136
405 1 0.246808 0.138618 0.85192
419 1 0.284169 0.107723 0.897742
352 1 0.812127 0.134385 0.804768
396 1 0.2064 0.18333 0.886206
407 1 0.380952 0.346543 0.815755
483 1 0.439917 0.330142 0.84267
430 1 0.606571 0.439816 0.880534
385 1 0.689227 0.371588 0.88051
289 1 0.747672 0.394014 0.859394
306 1 0.342501 0.628844 0.857907
281 1 0.363054 0.68823 0.87969
346 1 0.593367 0.670893 0.809744
287 1 0.0876068 0.772996 0.817529
455 1 0.0236997 0.783064 0.801459
450 1 0.138345 0.755464 0.858111
441 1 0.718937 0.81051 0.833023
277 1 0.629306 0.908009 0.822555
347 1 0.675879 0.86336 0.837404
308 1 0.733168 0.865743 0.800138
477 1 0.28398 0.979313 0.899722
320 1 0.427911 0.954939 0.828731
359 1 0.491922 0.953538 0.850464
376 1 0.599281 0.910466 0.883814
439 1 0.617484 0.969198 0.863886
375 1 0.657897 0.966183 0.812775
363 1 0.665961 0.92097 0.873905
393 1 0.70369 0.921396 0.819394
291 1 0.770111 0.982696 0.829239
169 1 0.25453 0.0743234 0.994927
466 1 0.268246 0.0162191 0.955764
506 1 0.228584 0.0148657 0.900737
303 1 0.241999 0.0687028 0.932569
457 1 0.30468 0.0727964 0.95237
461 1 0.331034 0.0122242 0.935799
425 1 0.983396 0.0448243 0.938246
501 1 0.218613 0.12412 0.907913
410 1 0.26671 0.170101 0.908102
329 1 0.216151 0.169792 0.953914
301 1 0.200898 0.106166 0.967852
323 1 0.265018 0.126269 0.957571
403 1 0.237837 0.2269 0.926323
343 1 0.6434 0.194817 0.954568
311 1 0.833221 0.219821 0.912486
296 1 0.596073 0.343859 0.968137
387 1 0.637074 0.35182 0.91675
390 1 0.574561 0.403915 0.990533
304 1 0.591257 0.396062 0.926958
384 1 0.722995 0.416968 0.917131
409 1 0.692743 0.366653 0.94742
286 1 0.656048 0.416381 0.916695
65 1 0.638459 0.393458 0.974195
401 1 0.972698 0.437936 0.961544
312 1 0.141855 0.4941 0.988359
495 1 0.201725 0.473287 0.9727
443 1 0.531483 0.505686 0.929754
283 1 0.578206 0.458537 0.939449
398 1 0.996933 0.49934 0.950876
335 1 0.930935 0.489575 0.953919
12 1 0.234353 0.634366 0.985934
310 1 0.963147 0.617922 0.902433
365 1 0.0920034 0.707119 0.969296
492 1 0.158481 0.715251 0.971726
274 1 0.226985 0.702724 0.983771
476 1 0.28673 0.670715 0.972413
290 1 0.319723 0.652835 0.916734
469 1 0.575205 0.700143 0.97245
324 1 0.886403 0.718481 0.913556
319 1 0.879232 0.674616 0.965051
490 1 0.92545 0.72122 0.968889
340 1 0.931446 0.672272 0.923678
271 1 0.546152 0.759547 0.962799
422 1 0.611826 0.756003 0.974564
266 1 0.860362 0.738805 0.972411
474 1 0.590344 0.907801 0.949161
491 1 0.0124317 0.986076 0.950958
201 1 0.0358169 0.934536 0.997725
94 1 0.547918 0.996386 0.985267
360 1 0.571559 0.965772 0.922245
434 1 0.635742 0.950525 0.924298
191 1 0.605306 0.963648 0.981628
ITEM: TIMESTEP
1000
ITEM: NUMBER OF ATOMS
512
ITEM: BOX BOUNDS pp pp pp
1.5436908868998707e+00 1.5252271026925154e+01
1.5436908868998707e+00 1.5252271026925154e+01
1.5436908868998707e+00 1.5252271026925154e+01
ITEM: ATOMS id type xs ys zs
6 1 0.00765674 0.0609237 0.00144874
79 1 0.429468 0.0883698 0.102981
262 1 0.624005 0.0265208 0.0597518
92 1 0.671492 0.0891204 0.0809744
201 1 0.947689 0.0976569 0.0232757
108 1 0.636738 0.206204 0.00492998
360 1 0.806487 0.180511 0.120078
230 1 0.848674 0.144949 0.0541753
501 1 0.205102 0.228752 0.0220045
296 1 0.636376 0.305423 0.0542397
82 1 0.708693 0.236159 0.124741
185 1 0.880426 0.32176 0.091978
225 1 0.177267 0.427995 0.0554646
151 1 0.26888 0.414353 0.118842
200 1 0.238904 0.340733 0.0294777
409 1 0.868442 0.399776 0.0559831
104 1 0.139779 0.511739 0.0334093
462 1 0.2105 0.494487 0.11376
242 1 0.285088 0.520928 0.0868877
290 1 0.428969 0.521443 0.118495
407 1 0.364008 0.539867 0.0153748
135 1 0.508971 0.512177 0.0920458
54 1 0.0715319 0.563938 0.0230644
93 1 0.134511 0.634683 0.0400093
464 1 0.192304 0.648644 0.10283
161 1 0.326013 0.59039 0.0800168
91 1 0.469937 0.586191 0.0863894
141 1 0.414306 0.857449 0.120024
449 1 0.594243 0.836968 0.119983
363 1 0.650452 0.849369 0.0692001
26 1 0.352914 0.897152 0.0700504
212 1 0.848011 0.922845 0.0757144
336 1 0.961961 0.924617 0.112771
143 1 0.266699 0.106222 0.23451
27 1 0.335318 0.0458078 0.204593
239 1 0.350327 0.107616 0.142278
149 1 0.41498 0.0315784 0.21171
264 1 0.729009 0.0910127 0.233089
320 1 0.824733 0.041887 0.205651
87 1 0.326295 0.169531 0.195708
181 1 0.284616 0.143544 0.13516
157 1 0.728004 0.178453 0.195535
88 1 0.808774 0.13876 0.208633
1 1 0.88648 0.118264 0.244715
117 1 0.320565 0.323679 0.248714
211 1 0.865831 0.256521 0.134467
162 1 0.782759 0.323081 0.155143
72 1 0.917596 0.237099 0.214077
80 1 0.956912 0.293101 0.159036
22 1 0.180786 0.433959 0.14725
130 1 0.315341 0.41118 0.239181
237 1 0.23343 0.413933 0.206648
17 1 0.386002 0.416897 0.173449
13 1 0.460475 0.424838 0.190216
47 1 0.8662 0.373424 0.207029
158 1 0.829218 0.381921 0.126328
30 1 0.783612 0.350469 0.221823
38 1 0.916957 0.361124 0.14185
205 1 0.139083 0.497274 0.224744
196 1 0.215494 0.490488 0.197137
24 1 0.351027 0.533524 0.130677
31 1 0.341581 0.481749 0.19473
64 1 0.404604 0.479123 0.24463
154 1 0.510228 0.544466 0.174956
56 1 0.515915 0.455089 0.146677
132 1 0.523479 0.48334 0.226405
249 1 0.559376 0.547207 0.249353
202 1 0.588802 0.538076 0.137341
469 1 0.820225 0.514511 0.137637
248 1 0.120142 0.625151 0.150355
23 1 0.20901 0.636683 0.234204
174 1 0.127792 0.616145 0.231834
99 1 0.267643 0.643308 0.162136
259 1 0.264865 0.558902 0.217372
274 1 0.344216 0.625993 0.158705
228 1 0.398993 0.589553 0.190293
233 1 0.463952 0.615027 0.219733
183 1 0.517244 0.666365 0.154627
101 1 0.593015 0.664013 0.173109
252 1 0.56423 0.611981 0.206252
490 1 0.745189 0.662234 0.165238
335 1 0.789399 0.583129 0.186145
319 1 0.888378 0.63168 0.145925
176 1 0.0853992 0.730008 0.184069
167 1 0.425489 0.764961 0.148202
140 1 0.421602 0.667381 0.162339
136 1 0.477147 0.718825 0.196488
199 1 0.618724 0.739008 0.198888
198 1 0.825849 0.674288 0.131108
271 1 0.898242 0.742156 0.130021
44 1 0.0224538 0.846513 0.175129
113 1 0.396675 0.82472 0.198317
217 1 0.0348796 0.929988 0.175719
146 1 0.656944 0.88929 0.155778
207 1 0.578202 0.92598 0.136303
206 1 0.639918 0.940336 0.213005
186 1 0.87456 0.973966 0.182513
436 1 0.961057 0.985909 0.193713
76 1 0.91876 0.909278 0.226578
172 1 0.319418 0.0618303 0.286457
246 1 0.38569 0.0390583 0.341433
29 1 0.449997 0.0404444 0.287482
94 1 0.741367 0.0870199 0.356246
210 1 0.788112 0.0655415 0.284725
4 1 0.913773 0.0384978 0.265203
254 1 0.137786 0.180197 0.325525
415 1 0.299712 0.137338 0.296654
251 1 0.415821 0.121496 0.31765
438 1 0.397617 0.19591 0.284154
5 1 0.534054 0.134031 0.305263
250 1 0.466473 0.194719 0.343322
500 1 0.812082 0.14958 0.284309
267 1 0.824333 0.171809 0.361038
256 1 0.892487 0.118891 0.335782
165 1 0.909207 0.193149 0.342143
491 1 0.0486765 0.264991 0.336065
498 1 0.413053 0.257362 0.335711
98 1 0.461179 0.287308 0.266415
229 1 0.75112 0.29451 0.321947
232 1 0.883103 0.306533 0.253913
55 1 0.982394 0.304945 0.294958
175 1 0.299351 0.376921 0.308171
403 1 0.40818 0.364439 0.260318
120 1 0.754615 0.421027 0.250576
192 1 0.733744 0.410841 0.329955
75 1 0.841067 0.341991 0.310941
344 1 0.197662 0.475164 0.278321
505 1 0.177905 0.497342 0.354766
194 1 0.276969 0.497569 0.251422
142 1 0.232579 0.552589 0.289471
139 1 0.328459 0.460328 0.305318
173 1 0.392615 0.517825 0.322
129 1 0.471975 0.550424 0.271911
345 1 0.0693853 0.593742 0.350993
118 1 0.0526375 0.609911 0.274776
39 1 0.169793 0.606923 0.295455
134 1 0.42451 0.600572 0.338805
349 1 0.544994 0.593239 0.333364
356 1 0.487415 0.639381 0.356932
9 1 0.0789341 0.750714 0.345167
16 1 0.0530818 0.719975 0.271652
156 1 0.422648 0.717501 0.336161
123 1 0.487992 0.698408 0.283398
89 1 0.509157 0.760877 0.322668
15 1 0.634277 0.712537 0.371684
78 1 0.9203 0.690025 0.350927
106 1 0.977856 0.70517 0.28546
145 1 0.029391 0.823514 0.335473
450 1 0.341314 0.841653 0.355099
100 1 0.335739 0.803741 0.278197
147 1 0.784604 0.877635 0.272844
273 1 0.301285 0.975284 0.297068
241 1 0.384059 0.97819 0.294926
480 1 0.353617 0.889354 0.282048
218 1 0.448781 0.956027 0.340433
269 1 0.656063 0.979462 0.286607
359 1 0.741027 0.927911 0.322262
110 1 0.717363 0.997557 0.339956
220 1 0.846289 0.982093 0.286259
330 1 0.0872371 0.0778062 0.476211
358 1 0.311285 0.0801846 0.459317
272 1 0.462958 0.0464386 0.485397
317 1 0.701867 0.041329 0.491858
21 1 0.952463 0.0695316 0.393916
90 1 0.317434 0.186946 0.398033
20 1 0.428404 0.138096 0.486586
160 1 0.443821 0.126493 0.390646
341 1 0.36181 0.162584 0.466528
381 1 0.349375 0.114298 0.389632
35 1 0.399294 0.177829 0.378174
179 1 0.458512 0.194721 0.431883
60 1 0.520433 0.142865 0.494902
494 1 0.787819 0.212792 0.495152
216 1 0.0173937 0.294751 0.439351
81 1 0.0310549 0.224282 0.416316
261 1 0.0835715 0.308454 0.39042
234 1 0.111465 0.240773 0.402324
43 1 0.140001 0.27457 0.467155
114 1 0.311529 0.308059 0.41767
190 1 0.482795 0.268571 0.489739
222 1 0.477056 0.270965 0.383067
77 1 0.728818 0.327312 0.438506
187 1 0.948386 0.240443 0.492566
373 1 0.00382495 0.440842 0.483704
2 1 0.019696 0.339439 0.378566
221 1 0.336348 0.367502 0.3811
257 1 0.650872 0.433901 0.461714
126 1 0.578856 0.364513 0.482864
121 1 0.786485 0.355633 0.379409
293 1 0.972258 0.407972 0.418082
247 1 0.891371 0.333428 0.4206
502 1 0.0674019 0.531486 0.47642
124 1 0.0441811 0.472698 0.425361
458 1 0.145267 0.486901 0.439574
164 1 0.288528 0.5144 0.382928
447 1 0.256586 0.541194 0.457871
368 1 0.859983 0.516517 0.415124
52 1 0.968297 0.530094 0.433093
357 1 0.917105 0.514709 0.496983
260 1 0.141667 0.563754 0.493461
391 1 0.130643 0.568799 0.406147
163 1 0.208003 0.567102 0.406124
69 1 0.298461 0.592119 0.375085
7 1 0.240153 0.608675 0.471283
57 1 0.627357 0.616783 0.391537
152 1 0.678516 0.60585 0.495657
188 1 0.805245 0.597237 0.411434
58 1 0.866373 0.624419 0.458634
189 1 0.801328 0.654797 0.493221
63 1 0.87596 0.589813 0.392992
258 1 0.940001 0.658089 0.430813
86 1 0.475859 0.751261 0.398052
292 1 0.595579 0.765432 0.443787
11 1 0.645704 0.710215 0.469657
48 1 0.699661 0.739925 0.42156
223 1 0.749986 0.681246 0.443723
488 1 0.791898 0.776975 0.397555
42 1 0.819014 0.683489 0.425043
184 1 0.84344 0.751241 0.464485
10 1 0.900109 0.715956 0.491434
131 1 0.0804974 0.817864 0.460473
62 1 0.173241 0.798836 0.398072
268 1 0.250608 0.791823 0.411972
474 1 0.655341 0.83338 0.432302
122 1 0.736905 0.882413 0.42291
25 1 0.72721 0.804625 0.487285
255 1 0.818417 0.863737 0.472684
395 1 0.122427 0.973722 0.497584
478 1 0.146508 0.979285 0.394863
307 1 0.398814 0.902931 0.396719
361 1 0.742581 0.964678 0.415533
334 1 0.669511 0.971965 0.462124
314 1 0.101817 0.0338689 0.541609
392 1 0.456669 0.100777 0.544604
298 1 0.657359 0.109095 0.543197
377 1 0.714785 0.0440222 0.576745
45 1 0.814066 0.062952 0.592159
102 1 0.912444 0.00537836 0.533663
112 1 0.147393 0.165837 0.555985
400 1 0.210859 0.136784 0.573204
270 1 0.167177 0.112663 0.512483
495 1 0.164627 0.217516 0.623302
397 1 0.255864 0.215689 0.546329
479 1 0.309098 0.134007 0.580066
460 1 0.261605 0.145874 0.508268
511 1 0.460062 0.186614 0.535697
468 1 0.610581 0.173061 0.566184
416 1 0.713278 0.125972 0.615656
275 1 0.689217 0.183232 0.568092
414 1 0.989914 0.201449 0.537133
312 1 0.0945132 0.297912 0.589448
315 1 0.380915 0.235869 0.520212
53 1 0.334645 0.305047 0.523113
406 1 0.645209 0.252011 0.615477
295 1 0.681198 0.329101 0.571333
362 1 0.84841 0.319766 0.558738
159 1 0.777856 0.282115 0.565631
348 1 0.197449 0.365274 0.568128
208 1 0.350167 0.344327 0.616
351 1 0.66239 0.396494 0.615218
499 1 0.706277 0.360929 0.502024
115 1 0.869205 0.440088 0.605334
383 1 0.807142 0.381673 0.574524
236 1 0.925159 0.379049 0.544425
465 1 0.996189 0.358206 0.596333
342 1 0.0754837 0.459965 0.506786
493 1 0.0298996 0.454163 0.567721
83 1 0.00391207 0.530024 0.54991
366 1 0.0893267 0.478707 0.600443
471 1 0.0930295 0.527561 0.545639
420 1 0.163277 0.484242 0.523029
387 1 0.553861 0.505358 0.575542
178 1 0.607469 0.521397 0.51787
116 1 0.827234 0.516322 0.50172
402 1 0.804362 0.523168 0.594592
302 1 0.881522 0.545758 0.5611
389 1 0.932508 0.515912 0.60799
155 1 0.953746 0.451262 0.551764
459 1 0.0823833 0.614889 0.514837
50 1 0.183846 0.619861 0.533563
226 1 0.266611 0.593421 0.543143
508 1 0.316798 0.66264 0.559819
107 1 0.366248 0.648141 0.502934
193 1 0.809436 0.596467 0.566191
339 1 0.905568 0.608886 0.593468
332 1 0.944976 0.604041 0.513448
40 1 0.446746 0.685656 0.501441
46 1 0.746178 0.700086 0.528237
507 1 0.859513 0.672705 0.55177
182 1 0.86183 0.740253 0.593765
429 1 0.556359 0.872166 0.520691
219 1 0.635376 0.777985 0.61791
297 1 0.073316 0.971089 0.581567
209 1 0.0407743 0.995999 0.507438
364 1 0.429798 0.946443 0.554628
204 1 0.709931 0.905338 0.561718
153 1 0.718384 0.965248 0.613809
68 1 0.734235 0.982804 0.536274
288 1 0.878352 0.982509 0.596807
328 1 0.781532 0.927125 0.500791
456 1 0.800427 0.916931 0.584051
74 1 0.869544 0.942722 0.51925
463 1 0.809463 0.993851 0.555488
412 1 0.896573 0.913286 0.616531
405 1 0.999647 0.95621 0.611696
279 1 0.212744 0.104033 0.708282
195 1 0.201588 0.0090675 0.744803
318 1 0.595694 0.0682847 0.728352
439 1 0.664791 0.037544 0.699226
374 1 0.679614 0.110396 0.748268
426 1 0.7792 0.0724583 0.690284
445 1 0.168536 0.16188 0.67732
285 1 0.640527 0.179489 0.637842
280 1 0.667391 0.185534 0.707052
487 1 0.739285 0.151987 0.693946
224 1 0.741175 0.204992 0.634862
14 1 0.81515 0.180264 0.729427
18 1 0.262988 0.309067 0.676891
51 1 0.406 0.244796 0.734224
473 1 0.350057 0.313598 0.739236
485 1 0.507544 0.231503 0.673382
263 1 0.629963 0.243642 0.74073
327 1 0.692984 0.311588 0.745912
437 1 0.0995659 0.383153 0.728449
512 1 0.212369 0.389798 0.644232
489 1 0.486618 0.406233 0.664453
483 1 0.556288 0.444232 0.658503
84 1 0.724942 0.434495 0.630887
197 1 0.713296 0.42523 0.736584
311 1 0.799795 0.389927 0.659926
472 1 0.973758 0.438328 0.626152
503 1 0.924217 0.346272 0.625317
509 1 0.0584409 0.471859 0.693165
427 1 0.00503033 0.541092 0.692386
492 1 0.016272 0.503255 0.62599
388 1 0.220486 0.513826 0.720413
231 1 0.147693 0.526524 0.651603
244 1 0.416436 0.497781 0.676741
350 1 0.509827 0.540048 0.704955
171 1 0.6157 0.511887 0.663368
128 1 0.656474 0.446602 0.673903
353 1 0.730784 0.512958 0.671559
413 1 0.809461 0.477295 0.663859
442 1 0.00466196 0.616986 0.668101
369 1 0.331628 0.660907 0.721882
281 1 0.247946 0.59141 0.712041
105 1 0.431291 0.564616 0.716713
306 1 0.404703 0.566854 0.636317
355 1 0.873712 0.646377 0.691436
33 1 0.897307 0.576504 0.669449
354 1 0.202969 0.695991 0.649059
504 1 0.167316 0.752568 0.731628
299 1 0.284436 0.706926 0.650949
321 1 0.246924 0.68363 0.716322
177 1 0.340511 0.740013 0.70376
434 1 0.515251 0.694785 0.736086
32 1 0.80656 0.71177 0.644028
428 1 0.956149 0.672887 0.687063
451 1 0.910738 0.688576 0.62745
287 1 0.149746 0.86088 0.696752
433 1 0.334551 0.85125 0.744482
453 1 0.614727 0.846784 0.68003
484 1 0.853373 0.869616 0.67917
338 1 0.982864 0.87051 0.749672
482 1 0.101094 0.910298 0.741012
372 1 0.0403075 0.996326 0.656769
103 1 0.132115 0.973648 0.713422
347 1 0.64277 0.912651 0.721337
375 1 0.61514 0.985621 0.727995
394 1 0.701076 0.957935 0.69281
300 1 0.76783 0.996947 0.690396
66 1 0.0421143 0.0379127 0.838166
497 1 0.118329 0.0240563 0.769917
329 1 0.387836 0.0635973 0.817978
325 1 0.656572 0.0395849 0.786737
326 1 0.735283 0.0391522 0.752982
486 1 0.746818 0.0110758 0.837406
396 1 0.997372 0.0699251 0.781749
408 1 0.897198 0.0765334 0.81648
276 1 0.0424081 0.15451 0.841534
431 1 0.1361 0.132613 0.851076
506 1 0.162804 0.171716 0.757139
227 1 0.229441 0.134377 0.836729
380 1 0.480253 0.186307 0.86453
379 1 0.600268 0.135069 0.776456
109 1 0.605953 0.215992 0.874696
496 1 0.747701 0.131822 0.768183
417 1 0.711208 0.220573 0.766019