ITEM: TIMESTEP
200000
ITEM: NUMBER OF ATOMS
512
ITEM: BOX BOUNDS pp pp pp
4.1943840529440033e+00 1.2601577860881083e+01
4.1943840529440033e+00 1.2601577860881083e+01
4.1943840529440033e+00 1.2601577860881083e+01
ITEM: ATOMS id type xs ys zs
384 1 0.142118 0.0945672 0.038435
200 1 0.0407946 0.0563769 0.136485
325 1 0.0157677 0.0810005 0.0158804
87 1 0.26416 0.161577 0.0385425
317 1 0.258191 0.0316485 0.0411979
335 1 0.194057 0.0831838 0.152972
136 1 0.328232 0.0980811 0.129851
263 1 0.386472 0.135748 0.0328941
167 1 0.451322 0.0515779 0.109444
101 1 0.505976 0.163746 0.037821
92 1 0.61947 0.0874243 0.0326479
238 1 0.802328 0.0126453 0.0690136
466 1 0.821273 0.155143 0.114589
70 1 0.714505 0.084559 0.162041
57 1 0.749875 0.116848 0.01211
95 1 0.888626 0.115803 0.0147011
307 1 0.0939967 0.179349 0.130804
134 1 0.134202 0.222136 0.00802538
375 1 0.0866024 0.311601 0.137807
283 1 0.217489 0.222408 0.136124
83 1 0.291192 0.292133 0.00812529
369 1 0.455687 0.173558 0.156739
18 1 0.402712 0.253535 0.0376984
56 1 0.337575 0.23428 0.160925
149 1 0.655771 0.183511 0.103314
426 1 0.63478 0.308022 0.130279
140 1 0.505152 0.281798 0.0996963
251 1 0.59925 0.246979 0.0204117
61 1 0.746933 0.234692 0.0142662
250 1 0.7648 0.27322 0.130026
385 1 0.96182 0.183327 0.109477
264 1 0.867966 0.239211 0.0377307
146 1 0.164857 0.453175 0.126674
176 1 0.0318974 0.470178 0.0938147
210 1 0.119907 0.442096 0.0026647
410 1 0.195393 0.345117 0.0553391
40 1 0.287751 0.41521 0.0694715
448 1 0.451595 0.397058 0.104178
411 1 0.577642 0.416197 0.0698705
174 1 0.727783 0.413218 0.121517
86 1 0.678002 0.486441 0.0334083
132 1 0.690569 0.369327 0.00279725
108 1 0.958992 0.345827 0.0932436
440 1 0.842096 0.351187 0.053152
42 1 0.910253 0.453757 0.0441653
502 1 0.104898 0.58422 0.0988666
73 1 0.0783861 0.665678 0.0127974
222 1 0.25379 0.610126 0.142257
327 1 0.205487 0.543166 0.0490012
133 1 0.403698 0.525939 0.125004
497 1 0.455067 0.63439 0.0147488
102 1 0.485215 0.660068 0.152041
490 1 0.346096 0.555388 0.0143529
12 1 0.532846 0.515189 0.111686
383 1 0.662941 0.509895 0.150064
265 1 0.608747 0.615369 0.113506
228 1 0.800723 0.504062 0.0710212
160 1 0.729065 0.602272 0.0620628
191 1 0.839359 0.61808 0.0169751
65 1 0.933675 0.554674 0.1089
244 1 0.993433 0.553173 0.0108526
348 1 0.8555 0.653456 0.146058
288 1 0.0233613 0.780766 0.0956055
121 1 0.0482278 0.680993 0.155118
379 1 0.159731 0.735183 0.0983258
188 1 0.257342 0.744161 0.0291757
409 1 0.36211 0.673711 0.0849828
137 1 0.480118 0.801185 0.073119
368 1 0.337422 0.830053 0.106569
207 1 0.594614 0.798993 0.109396
258 1 0.550448 0.703396 0.0226225
413 1 0.679438 0.719804 0.105232
236 1 0.771876 0.739725 0.0217642
232 1 0.9544 0.678346 0.0511955
319 1 0.850042 0.782881 0.117972
120 1 0.137748 0.966066 0.0704886
503 1 0.098905 0.889296 0.147517
183 1 0.0797078 0.87836 0.00968173
124 1 0.230979 0.948917 0.144567
376 1 0.201942 0.844309 0.0946781
262 1 0.273454 0.911469 0.0255125
272 1 0.348146 0.974716 0.105364
231 1 0.434396 0.891148 0.153851
341 1 0.419048 0.906337 0.0208971
441 1 0.524204 0.941732 0.0732627
446 1 0.688224 0.852754 0.0398992
103 1 0.830228 0.891485 0.0608903
162 1 0.755091 0.872566 0.15444
193 1 0.696421 0.97031 0.104356
481 1 0.909913 0.99145 0.157823
407 1 0.898254 0.972493 0.00384209
192 1 0.948991 0.853236 0.030846
105 1 0.997857 0.956611 0.0761614
435 1 0.0857392 0.0950944 0.24235
80 1 0.278457 0.0495995 0.252889
508 1 0.204779 0.134661 0.328746
475 1 0.40717 0.0191455 0.22602
442 1 0.595751 0.0775755 0.167694
116 1 0.519897 0.072694 0.262745
347 1 0.625524 0.134352 0.305117
310 1 0.722128 0.0471157 0.306388
388 1 0.845052 0.156725 0.250938
203 1 0.964606 0.105554 0.217073
31 1 0.890421 0.00923514 0.291637
351 1 0.149909 0.222381 0.257334
316 1 0.0151036 0.23364 0.21905
399 1 0.0439976 0.326487 0.314283
242 1 0.27745 0.168806 0.244601
507 1 0.297363 0.301739 0.266326
187 1 0.392965 0.213888 0.30538
143 1 0.480929 0.310237 0.214874
185 1 0.582708 0.205537 0.206208
159 1 0.626279 0.29435 0.288999
275 1 0.803721 0.282739 0.255545
22 1 0.72061 0.196611 0.220654
141 1 0.890404 0.269907 0.176369
111 1 0.917483 0.249697 0.32301
393 1 0.0576369 0.419967 0.209169
75 1 0.159861 0.346713 0.278514
211 1 0.134585 0.468658 0.305916
386 1 0.000800166 0.440715 0.32765
9 1 0.228713 0.370153 0.191973
488 1 0.279545 0.48995 0.18692
245 1 0.252911 0.422695 0.308253
462 1 0.358875 0.353377 0.174003
213 1 0.38343 0.417523 0.31147
41 1 0.508497 0.412269 0.293729
138 1 0.601571 0.421533 0.196807
255 1 0.715055 0.387114 0.246732
511 1 0.826174 0.389368 0.17811
122 1 0.938475 0.449789 0.167311
387 1 0.928829 0.361956 0.256047
418 1 0.904262 0.495445 0.280061
382 1 0.0801353 0.542426 0.227146
199 1 0.0438731 0.661724 0.291208
178 1 0.216447 0.561831 0.265769
198 1 0.262357 0.66358 0.324544
483 1 0.327227 0.535008 0.319092
471 1 0.440009 0.525362 0.262879
398 1 0.363724 0.644908 0.214704
3 1 0.46676 0.622175 0.322143
346 1 0.558748 0.575404 0.225526
400 1 0.685689 0.512678 0.274328
453 1 0.82412 0.522619 0.189504
354 1 0.728152 0.628674 0.177635
93 1 0.735356 0.626761 0.314625
63 1 0.959918 0.601029 0.236518
470 1 0.848484 0.64244 0.278508
286 1 0.0929975 0.786493 0.236644
380 1 0.153724 0.671298 0.22701
89 1 0.222805 0.819069 0.236267
218 1 0.265942 0.732364 0.174001
343 1 0.440284 0.769366 0.183172
226 1 0.377337 0.741572 0.33227
71 1 0.637787 0.689446 0.23337
270 1 0.528098 0.738588 0.285112
463 1 0.661337 0.815678 0.224097
254 1 0.779964 0.741035 0.212369
19 1 0.943364 0.753915 0.189189
408 1 0.00541575 0.981421 0.24631
100 1 0.137347 0.979191 0.21999
156 1 0.0830942 0.892101 0.312613
391 1 0.221875 0.927396 0.294494
152 1 0.339483 0.897699 0.238235
501 1 0.485873 0.929425 0.304183
248 1 0.347987 0.986468 0.333196
455 1 0.520504 0.973269 0.193604
114 1 0.650631 0.968839 0.222703
215 1 0.532066 0.858039 0.213107
315 1 0.605567 0.892999 0.315812
350 1 0.793471 0.982792 0.203196
247 1 0.732932 0.903528 0.286659
421 1 0.973882 0.868757 0.179951
145 1 0.85204 0.860562 0.238969
277 1 0.0194848 0.0087816 0.472765
130 1 0.0513028 0.0476013 0.353038
52 1 0.124322 0.080102 0.465665
79 1 0.277686 0.113108 0.476974
431 1 0.214454 0.0209775 0.3764
84 1 0.323278 0.11602 0.368472
284 1 0.453583 0.0485272 0.352567
26 1 0.415142 0.101392 0.482999
50 1 0.595665 0.00425699 0.333651
13 1 0.55653 0.099316 0.40098
406 1 0.825556 0.14898 0.465245
68 1 0.681705 0.0905016 0.412355
500 1 0.798796 0.0491726 0.399509
173 1 0.949638 0.108744 0.3503
479 1 0.911185 0.01447 0.416883
492 1 0.952376 0.124611 0.472661
278 1 0.0573519 0.177242 0.355332
324 1 0.155417 0.238221 0.426054
458 1 0.272779 0.230154 0.380235
491 1 0.265606 0.285787 0.499492
474 1 0.450213 0.315023 0.344013
165 1 0.396787 0.234695 0.434561
478 1 0.512448 0.203297 0.335728
48 1 0.525058 0.30454 0.434461
285 1 0.622962 0.220367 0.405197
266 1 0.532724 0.177719 0.48986
256 1 0.756705 0.172182 0.347159
300 1 0.724029 0.29929 0.358833
97 1 0.732168 0.230532 0.486578
419 1 0.995424 0.250142 0.44031
402 1 0.861272 0.261778 0.466883
76 1 0.0999071 0.493329 0.426539
468 1 0.0579027 0.354251 0.46452
498 1 0.325898 0.337801 0.393465
289 1 0.170231 0.385446 0.415337
269 1 0.299936 0.454547 0.430178
205 1 0.442628 0.46037 0.414073
444 1 0.558015 0.450114 0.44918
131 1 0.830423 0.390741 0.467422
14 1 0.691912 0.412812 0.372251
33 1 0.730538 0.487436 0.463767
293 1 0.830954 0.388892 0.335621
53 1 0.944159 0.354166 0.392568
219 1 0.97559 0.456446 0.496032
163 1 0.127033 0.595746 0.347473
36 1 0.163834 0.638078 0.45788
253 1 0.230612 0.546352 0.3858
155 1 0.48628 0.596765 0.442206
403 1 0.345356 0.590114 0.440016
326 1 0.589398 0.515655 0.344179
260 1 0.605773 0.573199 0.464803
166 1 0.597303 0.636336 0.344654
51 1 0.790081 0.517887 0.340974
60 1 0.800434 0.615378 0.43246
197 1 0.898526 0.508519 0.40495
181 1 0.977684 0.592022 0.499706
494 1 0.9935 0.564653 0.365735
349 1 0.9234 0.659632 0.388007
227 1 0.0412619 0.685017 0.408494
27 1 0.133022 0.764193 0.48855
432 1 0.137771 0.765155 0.35664
204 1 0.0052106 0.785951 0.334481
17 1 0.265105 0.727017 0.42711
430 1 0.411212 0.703748 0.460103
74 1 0.486991 0.828959 0.365717
336 1 0.372329 0.821126 0.438193
98 1 0.637409 0.768639 0.363528
224 1 0.527616 0.726318 0.427865
352 1 0.692041 0.67246 0.419338
229 1 0.708866 0.830985 0.444498
233 1 0.765764 0.803436 0.337667
505 1 0.857004 0.703321 0.491972
8 1 0.943715 0.79059 0.452038
436 1 0.0566468 0.856157 0.445091
499 1 0.272946 0.833572 0.35611
443 1 0.184144 0.89448 0.419194
366 1 0.282169 0.963782 0.475695
472 1 0.403992 0.980718 0.451547
171 1 0.593518 0.874894 0.466834
16 1 0.521447 0.96303 0.421753
362 1 0.697683 0.961024 0.401525
371 1 0.938925 0.911448 0.483815
447 1 0.966054 0.895423 0.36621
485 1 0.835255 0.918652 0.369345
459 1 0.035138 0.0723845 0.598125
259 1 0.255925 0.140024 0.64999
234 1 0.230032 0.0423057 0.569042
59 1 0.436107 0.132547 0.617215
397 1 0.352678 0.0248441 0.574618
123 1 0.473869 0.0207207 0.558449
504 1 0.560014 0.0740295 0.633007
113 1 0.645951 0.155024 0.546048
464 1 0.595841 0.0310315 0.502112
150 1 0.756824 0.0481046 0.516292
82 1 0.789108 0.011229 0.623314
206 1 0.69283 0.0841794 0.64661
330 1 0.866367 0.105335 0.653873
390 1 0.909411 0.0435804 0.553041
298 1 0.0624917 0.22092 0.562437
332 1 0.139716 0.305873 0.549961
67 1 0.125289 0.17226 0.661795
214 1 0.32073 0.189213 0.559399
157 1 0.191686 0.181622 0.543243
456 1 0.320624 0.310461 0.607692
217 1 0.213676 0.270691 0.6609
496 1 0.434182 0.244437 0.54947
378 1 0.552774 0.212914 0.623016
209 1 0.659875 0.27219 0.64999
110 1 0.616454 0.272872 0.515273
189 1 0.754197 0.176974 0.596283
340 1 0.823382 0.319891 0.569321
433 1 0.896315 0.222098 0.583332
127 1 0.943596 0.323731 0.538799
69 1 0.16494 0.393545 0.642669
154 1 0.0350395 0.350385 0.616707
445 1 0.122809 0.424475 0.527763
135 1 0.0629981 0.47934 0.639039
49 1 0.266056 0.42494 0.539211
249 1 0.283119 0.423295 0.659959
404 1 0.415372 0.399971 0.628994
482 1 0.393435 0.488896 0.516529
44 1 0.498707 0.37844 0.531048
54 1 0.380381 0.376359 0.501054
377 1 0.522012 0.347179 0.639642
225 1 0.601062 0.446115 0.557984
64 1 0.69295 0.369022 0.527142
208 1 0.752963 0.388698 0.640645
55 1 0.865536 0.428111 0.604233
370 1 0.0831148 0.547919 0.542819
457 1 0.192413 0.521806 0.506863
38 1 0.295617 0.540306 0.578678
37 1 0.184413 0.528965 0.659189
321 1 0.167891 0.622005 0.586191
32 1 0.399086 0.632295 0.578499
425 1 0.495706 0.502603 0.59699
487 1 0.498982 0.623018 0.665089
23 1 0.536763 0.642756 0.547816
331 1 0.609408 0.537544 0.646341
424 1 0.736455 0.508668 0.592082
261 1 0.825103 0.619823 0.583596
355 1 0.710487 0.609931 0.650777
30 1 0.701636 0.617702 0.53237
412 1 0.949047 0.5191 0.605709
454 1 0.936613 0.656465 0.596804
314 1 0.8536 0.521645 0.508581
186 1 0.0657502 0.829107 0.575583
295 1 0.055928 0.687781 0.540053
428 1 0.129667 0.746471 0.638224
416 1 0.274425 0.67025 0.542366
240 1 0.257558 0.795924 0.645643
142 1 0.381579 0.772784 0.5704
34 1 0.478679 0.824355 0.502488
318 1 0.621988 0.694634 0.615136
363 1 0.506726 0.748449 0.61482
271 1 0.613767 0.755944 0.505442
509 1 0.634819 0.829522 0.604825
7 1 0.83026 0.751027 0.626903
62 1 0.738806 0.737448 0.555228
274 1 0.954267 0.786753 0.580155
333 1 0.839224 0.832002 0.521515
313 1 0.0960002 0.955184 0.65915
10 1 0.00345184 0.936629 0.579789
401 1 0.14095 0.954485 0.523765
109 1 0.253605 0.838953 0.523745
279 1 0.25755 0.928015 0.604825
239 1 0.485814 0.877732 0.619271
66 1 0.37054 0.895462 0.559897
164 1 0.586344 0.94627 0.590843
344 1 0.759106 0.851046 0.655773
374 1 0.696584 0.925527 0.527913
381 1 0.684307 0.945579 0.661991
345 1 0.829511 0.954682 0.512392
39 1 0.873685 0.901874 0.626551
452 1 0.0937918 0.0638972 0.717587
358 1 0.0586852 0.0572043 0.830722
292 1 0.248725 0.0235808 0.707578
329 1 0.21212 0.0924828 0.788556
29 1 0.486518 0.155377 0.739673
360 1 0.370224 0.0907844 0.717247
151 1 0.472945 0.0356925 0.811556
96 1 0.334983 0.000585975 0.798191
129 1 0.613053 0.1631 0.708005
106 1 0.604257 0.0282985 0.755325
241 1 0.760483 0.157473 0.717959
280 1 0.734724 0.0342881 0.768628
415 1 0.930823 0.00276784 0.819352
158 1 0.844212 0.0920423 0.790825
246 1 0.973595 0.101008 0.755851
230 1 0.0682785 0.272244 0.703799
175 1 0.00487159 0.197258 0.81812
119 1 0.133546 0.189672 0.783466
184 1 0.154137 0.313157 0.777667
337 1 0.281227 0.330402 0.74794
11 1 0.258186 0.209287 0.796987
104 1 0.441729 0.280132 0.717341
439 1 0.348561 0.214939 0.684042
78 1 0.38452 0.169376 0.819348
46 1 0.575861 0.281967 0.750794
361 1 0.70325 0.237584 0.782074
394 1 0.794866 0.272214 0.68696
28 1 0.935982 0.312456 0.683185
396 1 0.982645 0.183487 0.670416
2 1 0.883077 0.196852 0.758365
309 1 0.942678 0.323665 0.803093
268 1 0.0497709 0.389239 0.741034
449 1 0.165209 0.443272 0.748039
302 1 0.272179 0.443529 0.81688
467 1 0.381495 0.417035 0.748854
216 1 0.509581 0.419561 0.738799
172 1 0.628852 0.408146 0.676206
180 1 0.6112 0.425854 0.801354
301 1 0.707174 0.352533 0.745205
243 1 0.701473 0.49714 0.726873
182 1 0.817937 0.405901 0.744623
201 1 0.944251 0.460605 0.724751
476 1 0.156903 0.589031 0.803181
77 1 0.0804843 0.601314 0.67064
493 1 0.0291239 0.655585 0.797373
334 1 0.0652306 0.515867 0.771351
195 1 0.267123 0.553644 0.76
153 1 0.376259 0.522399 0.676885
305 1 0.44357 0.535437 0.788683
510 1 0.350583 0.641904 0.802759
427 1 0.484874 0.653877 0.79656
429 1 0.565192 0.536663 0.761712
291 1 0.61568 0.644608 0.728604
169 1 0.823039 0.517236 0.692142
342 1 0.745404 0.629218 0.788211
414 1 0.826556 0.535512 0.819001
168 1 0.959528 0.59023 0.70557
24 1 0.857465 0.658401 0.713128
506 1 0.958636 0.550067 0.821059
147 1 0.146689 0.711331 0.757599
1 1 0.00762765 0.713313 0.689442
328 1 0.0434571 0.783374 0.804857
450 1 0.238592 0.676108 0.684556
423 1 0.253755 0.782764 0.766899
58 1 0.367526 0.829652 0.720935
373 1 0.371577 0.697325 0.679526
281 1 0.473188 0.757934 0.736305
339 1 0.375137 0.766495 0.831797
117 1 0.602211 0.776894 0.782796
144 1 0.745583 0.727241 0.705689
392 1 0.806721 0.807005 0.780422
252 1 0.903953 0.774633 0.714395
139 1 0.0504049 0.950071 0.784332
484 1 0.0292251 0.852964 0.689598
81 1 0.157283 0.852027 0.714675
338 1 0.176441 0.973286 0.822174
323 1 0.263477 0.909644 0.749464
303 1 0.46557 0.99628 0.679015
495 1 0.352578 0.951919 0.676529
223 1 0.422456 0.925756 0.784102
47 1 0.55841 0.91433 0.723582
480 1 0.831209 0.960806 0.723478
489 1 0.7159 0.902237 0.774902
126 1 0.965427 0.9965 0.690979
115 1 0.927224 0.883841 0.768164
267 1 0.130032 0.0175323 0.933267
257 1 0.0788649 0.147154 0.915115
235 1 0.206222 0.114503 0.912361
322 1 0.444438 0.0929003 0.916814
125 1 0.378378 0.0144476 0.993402
43 1 0.561926 0.0523294 0.897363
287 1 0.830608 0.0555105 0.917488
405 1 0.678095 0.00293776 0.876226
372 1 0.733025 0.143281 0.849694
477 1 0.957106 0.0994268 0.888917
118 1 0.0851452 0.266934 0.887992
297 1 0.059046 0.329124 0.998801
90 1 0.322698 0.190433 0.936189
294 1 0.2037 0.229942 0.903613
15 1 0.311485 0.300028 0.879624
486 1 0.425326 0.310679 0.837081
35 1 0.48796 0.230336 0.926146
21 1 0.574295 0.183537 0.839434
170 1 0.655316 0.172054 0.936392
148 1 0.567455 0.314429 0.872466
161 1 0.689392 0.293503 0.889864
306 1 0.812587 0.269423 0.8343
359 1 0.987524 0.216169 0.978056
85 1 0.892377 0.219994 0.906768
320 1 0.0692585 0.397898 0.865388
299 1 0.156846 0.47944 0.870243
473 1 0.200425 0.361768 0.880704
437 1 0.2606 0.436194 0.950827
304 1 0.495504 0.432647 0.861414
389 1 0.377498 0.386498 0.9898
469 1 0.374696 0.473527 0.884231
4 1 0.504343 0.350057 0.972499
177 1 0.602194 0.46111 0.942148
461 1 0.788849 0.359042 0.935967
311 1 0.712565 0.417759 0.859384
395 1 0.970024 0.456002 0.926961
420 1 0.913098 0.338145 0.953077
179 1 0.875863 0.426992 0.869287
434 1 0.0682284 0.550461 0.904868
290 1 0.271234 0.570746 0.905641
45 1 0.187988 0.636713 0.965447
417 1 0.415306 0.591116 0.907056
221 1 0.540374 0.56205 0.874912
88 1 0.631208 0.650406 0.848631
438 1 0.502343 0.527813 0.987252
99 1 0.629126 0.600262 0.963896
20 1 0.674401 0.531665 0.85123
308 1 0.75929 0.505658 0.944314
196 1 0.743146 0.639245 0.922101
451 1 0.880075 0.543082 0.934055
91 1 0.865178 0.65572 0.863465
460 1 0.987811 0.651112 0.92375
365 1 0.143398 0.769894 0.959354
296 1 0.107567 0.689302 0.874716
364 1 0.000350712 0.781548 0.949235
353 1 0.151378 0.827736 0.841339
194 1 0.238374 0.674486 0.837067
94 1 0.325279 0.672165 0.939585
357 1 0.260738 0.779979 0.913214
237 1 0.375157 0.794028 0.985842
212 1 0.497103 0.734775 0.912931
273 1 0.540674 0.828986 0.983584
5 1 0.640651 0.754657 0.942363
282 1 0.718336 0.737677 0.844031
422 1 0.794376 0.82962 0.921984
356 1 0.913314 0.779158 0.846161
6 1 0.874646 0.752811 0.968075
276 1 0.0558762 0.87848 0.881333
220 1 0.0047542 0.970965 0.947256
72 1 0.193772 0.908722 0.935999
107 1 0.273527 0.998665 0.910602
25 1 0.462347 0.964445 0.912582
202 1 0.345655 0.884325 0.886614
112 1 0.476981 0.848798 0.857546
190 1 0.579715 0.933173 0.839932
367 1 0.661935 0.876941 0.912151
512 1 0.594816 0.957211 0.96515
312 1 0.816811 0.946695 0.845943
465 1 0.747561 0.955126 0.97969
128 1 0.90048 0.882164 0.917629
ITEM: TIMESTEP
201000
ITEM: NUMBER OF ATOMS
512
ITEM: BOX BOUNDS pp pp pp
4.1943840529440033e+00 1.2601577860881083e+01
4.1943840529440033e+00 1.2601577860881083e+01
4.1943840529440033e+00 1.2601577860881083e+01
ITEM: ATOMS id type xs ys zs
325 1 0.013698 0.122369 0.00721248
120 1 0.10983 0.0471841 0.0616347
335 1 0.170054 0.0812029 0.163516
262 1 0.287838 0.00781098 0.0575535
136 1 0.339718 0.123406 0.0866711
101 1 0.500877 0.119367 0.0231017
92 1 0.664101 0.126392 0.0864039
455 1 0.604212 0.0104554 0.0565544
50 1 0.522557 0.0811379 0.13935
193 1 0.748805 0.0660029 0.144266
465 1 0.818583 0.0278308 0.0388131
95 1 0.890924 0.131462 0.0329539
385 1 0.877927 0.0863951 0.156227
384 1 0.11786 0.181902 0.0305566
307 1 0.0150535 0.205813 0.103758
351 1 0.125484 0.24834 0.148742
297 1 0.0268308 0.32175 0.13936
56 1 0.229084 0.17845 0.0891861
462 1 0.330852 0.277838 0.0738903
140 1 0.44321 0.198727 0.097261
426 1 0.518255 0.30297 0.0853351
442 1 0.56171 0.201386 0.151881
238 1 0.787757 0.176179 0.108192
149 1 0.672237 0.234885 0.0559133
22 1 0.672478 0.329469 0.139029
61 1 0.895301 0.248762 0.0709997
134 1 0.10524 0.363091 0.0344215
108 1 0.0208281 0.438511 0.0930651
83 1 0.229432 0.338698 0.092678
410 1 0.170433 0.487392 0.0727419
40 1 0.308631 0.441508 0.0578931
448 1 0.427485 0.374776 0.0836216
490 1 0.394903 0.475441 0.152009
12 1 0.507788 0.47346 0.0259682
383 1 0.650017 0.422144 0.0591909
250 1 0.74612 0.341309 0.0313138
440 1 0.739395 0.464258 0.152015
42 1 0.789379 0.465588 0.0360828
264 1 0.91256 0.389062 0.0202787
176 1 0.0891172 0.573971 0.0919341
502 1 0.198931 0.625907 0.0798012
94 1 0.317824 0.655432 0.0259276
488 1 0.285812 0.545517 0.113332
497 1 0.472736 0.627369 0.0065869
102 1 0.390193 0.619312 0.137358
265 1 0.502236 0.551742 0.144522
258 1 0.58022 0.647396 0.0961507
99 1 0.656023 0.636513 0.00514805
160 1 0.613256 0.536449 0.0668606
228 1 0.784852 0.571615 0.100299
348 1 0.706215 0.661144 0.129211
65 1 0.910938 0.510515 0.0926364
63 1 0.896661 0.612924 0.153364
451 1 0.871719 0.603925 0.0157876
121 1 0.00189822 0.700224 0.104425
379 1 0.0739411 0.816678 0.0600033
73 1 0.121439 0.7 0.0223923
188 1 0.243753 0.748646 0.0924071
237 1 0.328506 0.832834 0.0226824
409 1 0.384527 0.751086 0.114601
212 1 0.524661 0.760327 0.0394133
137 1 0.502371 0.714354 0.159997
215 1 0.624595 0.778307 0.15681
446 1 0.651988 0.74842 0.0394923
319 1 0.800222 0.810147 0.156959
413 1 0.768914 0.67143 0.00554157
232 1 0.866489 0.719685 0.0779423
503 1 0.0206339 0.933698 0.122671
376 1 0.162273 0.933795 0.09803
368 1 0.305018 0.891517 0.139651
125 1 0.486364 0.970209 0.0141422
272 1 0.395806 0.987459 0.0989693
341 1 0.457011 0.854035 0.0815171
441 1 0.592892 0.853469 0.0652156
475 1 0.533861 0.947796 0.130928
367 1 0.829353 0.899597 0.0590037
512 1 0.723261 0.957483 0.00847896
103 1 0.672399 0.973584 0.139864
254 1 0.717021 0.845401 0.0825177
288 1 0.929181 0.834093 0.09225
105 1 0.926186 0.985311 0.0662451
200 1 0.0240281 0.0674941 0.170196
435 1 0.0888323 0.0165594 0.262207
124 1 0.297408 0.00322515 0.196666
242 1 0.293753 0.120551 0.231998
431 1 0.211259 0.0406759 0.295496
167 1 0.405584 0.0701823 0.189327
369 1 0.495084 0.147997 0.240916
84 1 0.360932 0.023275 0.301103
474 1 0.384494 0.149328 0.302148
362 1 0.621503 0.0652464 0.32646
116 1 0.510513 0.0130687 0.24966
114 1 0.628552 0.0691153 0.200393
388 1 0.815227 0.164922 0.231925
350 1 0.737418 0.0628532 0.274423
31 1 0.855455 0.0252976 0.26389
316 1 0.0747437 0.170544 0.223659
141 1 0.0207579 0.259819 0.285429
75 1 0.15152 0.303572 0.279376
283 1 0.252483 0.290176 0.205955
508 1 0.193303 0.182511 0.28678
187 1 0.361694 0.226787 0.186487
143 1 0.47268 0.275607 0.198589
185 1 0.406111 0.300182 0.307705
347 1 0.554198 0.221484 0.324453
255 1 0.58428 0.303793 0.226385
70 1 0.691683 0.167738 0.204073
275 1 0.798333 0.280857 0.175353
300 1 0.706466 0.286049 0.291835
466 1 0.925836 0.220415 0.195021
203 1 0.936182 0.181865 0.311146
111 1 0.858171 0.274933 0.296088
375 1 0.138785 0.380767 0.172482
393 1 0.0824146 0.482539 0.205781
386 1 0.0390876 0.379901 0.265638
9 1 0.256628 0.440403 0.197338
245 1 0.175607 0.428186 0.301429
498 1 0.302241 0.368866 0.301751
507 1 0.363423 0.350507 0.18943
41 1 0.491857 0.377125 0.272193
205 1 0.391063 0.45164 0.26745
138 1 0.550661 0.420945 0.178146
174 1 0.670433 0.406722 0.243661
511 1 0.785447 0.403278 0.280025
387 1 0.93372 0.349629 0.217691
418 1 0.903593 0.429829 0.309652
211 1 0.118357 0.542415 0.308828
382 1 0.0654103 0.604166 0.219955
146 1 0.190192 0.554642 0.203066
222 1 0.287633 0.643388 0.213671
178 1 0.187537 0.666608 0.283741
483 1 0.280022 0.543633 0.285248
133 1 0.414584 0.576188 0.260266
213 1 0.526971 0.501566 0.276513
400 1 0.648114 0.518219 0.310737
354 1 0.651951 0.561972 0.186589
453 1 0.821586 0.547565 0.230462
470 1 0.715709 0.61942 0.285378
122 1 0.941445 0.520394 0.217177
494 1 0.990496 0.589694 0.309388
199 1 0.00392324 0.701148 0.257177
286 1 0.0264107 0.802884 0.178044
380 1 0.13331 0.695133 0.169368
89 1 0.148873 0.810086 0.189574
432 1 0.0965497 0.767713 0.312697
198 1 0.243989 0.768673 0.318452
218 1 0.298708 0.783035 0.203007
231 1 0.41844 0.819412 0.205031
343 1 0.414521 0.699713 0.233368
226 1 0.376389 0.790599 0.330487
71 1 0.610545 0.672581 0.225699
270 1 0.522349 0.753445 0.279447
98 1 0.614614 0.815907 0.323745
207 1 0.711867 0.768867 0.253659
233 1 0.80388 0.682481 0.210497
19 1 0.906301 0.752099 0.189382
349 1 0.885387 0.717279 0.305496
204 1 0.961048 0.812627 0.306082
156 1 0.0738732 0.897712 0.248606
100 1 0.183986 0.93942 0.226308
152 1 0.316974 0.896812 0.292936
80 1 0.416111 0.947464 0.209882
74 1 0.486992 0.896769 0.305361
501 1 0.587181 0.890494 0.219493
315 1 0.599064 0.945362 0.333
162 1 0.708195 0.939695 0.251614
481 1 0.802286 0.951345 0.172761
421 1 0.807926 0.849685 0.300808
408 1 0.894947 0.881713 0.217739
52 1 0.121552 0.0404747 0.402066
324 1 0.06593 0.144864 0.351647
157 1 0.182388 0.118328 0.464259
79 1 0.279713 0.117048 0.360132
26 1 0.494698 0.117376 0.488416
214 1 0.36318 0.0432915 0.448065
478 1 0.484648 0.133313 0.365693
284 1 0.50142 0.0047409 0.382271
13 1 0.606587 0.137868 0.428725
68 1 0.719522 0.160204 0.477504
500 1 0.712492 0.0553801 0.421725
173 1 0.825507 0.133866 0.355968
479 1 0.827526 0.0634089 0.468752
492 1 0.949244 0.113425 0.433829
278 1 0.974613 0.0495839 0.334412
399 1 0.164187 0.239051 0.396151
332 1 0.139905 0.329313 0.488193
458 1 0.294453 0.248301 0.33432
54 1 0.260353 0.21637 0.463105
165 1 0.379077 0.175781 0.433561
269 1 0.354458 0.310746 0.435401
266 1 0.48609 0.244227 0.463823
159 1 0.540262 0.332418 0.390755
285 1 0.650034 0.271306 0.408567
310 1 0.693951 0.176903 0.337821
256 1 0.776698 0.256023 0.383898
419 1 0.995517 0.23085 0.424144
402 1 0.873937 0.22453 0.446954
53 1 0.94042 0.32644 0.382503
445 1 0.145203 0.473304 0.408613
76 1 0.00788425 0.481341 0.338143
468 1 0.0645138 0.360503 0.383094
491 1 0.224035 0.339501 0.390079
403 1 0.289209 0.448054 0.418422
444 1 0.402337 0.411671 0.379873
110 1 0.623888 0.373833 0.467484
326 1 0.562003 0.469032 0.401755
33 1 0.720865 0.469037 0.474754
14 1 0.678975 0.401389 0.369957
293 1 0.819889 0.364585 0.394023
51 1 0.763027 0.497793 0.363951
197 1 0.94735 0.44098 0.444156
163 1 0.0922053 0.658895 0.39579
181 1 0.0180728 0.553839 0.482228
398 1 0.319488 0.656246 0.340568
416 1 0.244213 0.562223 0.442289
471 1 0.436271 0.662919 0.376503
155 1 0.402675 0.534884 0.383283
430 1 0.347317 0.595897 0.498754
346 1 0.556112 0.623616 0.334879
93 1 0.637059 0.578125 0.424747
166 1 0.523022 0.572972 0.463181
30 1 0.772012 0.580243 0.456682
261 1 0.893145 0.556221 0.461018
60 1 0.874592 0.596158 0.338383
27 1 0.147436 0.775042 0.460276
253 1 0.231883 0.692703 0.41821
17 1 0.289424 0.822701 0.421542
3 1 0.370086 0.728463 0.467697
224 1 0.468885 0.791834 0.40122
271 1 0.554266 0.69248 0.446002
229 1 0.61688 0.821969 0.456475
333 1 0.706545 0.691913 0.476558
463 1 0.786265 0.683026 0.386519
247 1 0.734318 0.828591 0.399303
352 1 0.667868 0.708937 0.349233
345 1 0.791197 0.772097 0.499915
505 1 0.894616 0.678168 0.457241
8 1 0.864947 0.793909 0.404153
227 1 0.986239 0.721159 0.386609
443 1 0.129294 0.914601 0.463724
130 1 0.0443829 0.942736 0.365182
436 1 0.0115139 0.83801 0.435173
499 1 0.265124 0.94516 0.393889
391 1 0.173504 0.875886 0.343166
248 1 0.402781 0.91467 0.406709
16 1 0.530137 0.897256 0.420245
145 1 0.777873 0.956109 0.359756
464 1 0.675362 0.941045 0.437639
485 1 0.844355 0.902722 0.46979
447 1 0.918356 0.9306 0.336139
277 1 0.960962 0.983685 0.450342
459 1 0.0587697 0.0201159 0.525316
67 1 0.153189 0.0812846 0.591073
452 1 0.0564223 0.0321564 0.664833
259 1 0.29022 0.137856 0.548091
292 1 0.288916 0.0439408 0.641244
234 1 0.228382 0.0015538 0.513897
397 1 0.382018 0.0507165 0.570462
104 1 0.374722 0.146071 0.655699
59 1 0.503997 0.0850283 0.650727
504 1 0.600839 0.163397 0.560959
164 1 0.624405 0.0857055 0.660972
123 1 0.593646 0.0323506 0.501609
206 1 0.724351 0.0557383 0.587863
330 1 0.858519 0.10616 0.65466
390 1 0.841964 0.000810818 0.575395
406 1 0.842407 0.158511 0.545777
396 1 0.951003 0.062604 0.577315
154 1 0.0488927 0.287695 0.607248
230 1 0.0154007 0.176907 0.640391
298 1 0.0658785 0.175823 0.523613
456 1 0.181326 0.221944 0.576017
49 1 0.259668 0.32861 0.517863
439 1 0.285178 0.248288 0.632725
496 1 0.387748 0.24716 0.538955
377 1 0.484469 0.219772 0.618804
113 1 0.604254 0.316446 0.604464
129 1 0.665599 0.21657 0.652864
340 1 0.797538 0.277248 0.604113
97 1 0.682391 0.256488 0.519346
433 1 0.941913 0.221731 0.547741
131 1 0.879599 0.332771 0.519956
135 1 0.0405078 0.402993 0.652857
37 1 0.158659 0.462179 0.647392
219 1 0.079402 0.438426 0.523928
127 1 0.00558345 0.337335 0.500691
69 1 0.167288 0.34327 0.609269
249 1 0.268556 0.387965 0.663348
482 1 0.316807 0.476533 0.557001
457 1 0.19142 0.482907 0.52771
425 1 0.458011 0.468784 0.546804
44 1 0.381609 0.367923 0.553193
225 1 0.50026 0.393216 0.662714
260 1 0.58145 0.481205 0.532073
48 1 0.506834 0.373093 0.503611
208 1 0.810403 0.402377 0.618839
172 1 0.687274 0.413264 0.585368
314 1 0.829915 0.44752 0.510659
64 1 0.750979 0.347626 0.505746
55 1 0.921559 0.338469 0.646959
412 1 0.942367 0.452005 0.567039
370 1 0.0454857 0.532275 0.607747
321 1 0.11775 0.617523 0.661126
289 1 0.143363 0.597969 0.520761
240 1 0.254439 0.612385 0.585486
23 1 0.48681 0.604303 0.576825
142 1 0.371344 0.573986 0.622592
331 1 0.592752 0.516889 0.657021
62 1 0.603559 0.617683 0.547312
291 1 0.596484 0.648338 0.663137
424 1 0.704804 0.559322 0.605911
7 1 0.809774 0.652536 0.550437
454 1 0.935864 0.618184 0.586954
169 1 0.847896 0.523012 0.612595
36 1 0.131951 0.736768 0.597453
295 1 0.0248438 0.718888 0.526173
1 1 0.00991254 0.694343 0.658975
139 1 0.11603 0.832116 0.665191
336 1 0.264374 0.734985 0.536762
34 1 0.447185 0.72912 0.574741
109 1 0.359279 0.805448 0.579627
318 1 0.575421 0.76244 0.55586
344 1 0.662584 0.827259 0.616951
144 1 0.691005 0.70398 0.606496
10 1 0.9828 0.832423 0.641538
39 1 0.871735 0.732281 0.610884
371 1 0.930595 0.795797 0.514166
274 1 0.0617784 0.842109 0.547071
313 1 0.136876 0.957402 0.609336
428 1 0.20936 0.845896 0.55628
401 1 0.324481 0.919026 0.50093
81 1 0.257584 0.930131 0.621913
472 1 0.465993 0.854363 0.521561
366 1 0.48154 0.983631 0.531643
66 1 0.404417 0.91324 0.61788
171 1 0.584074 0.907932 0.546876
239 1 0.51265 0.842059 0.626913
374 1 0.657733 0.95452 0.640601
495 1 0.531981 0.966539 0.650015
150 1 0.731623 0.874042 0.52951
186 1 0.964217 0.93613 0.568483
115 1 0.855203 0.850127 0.596597
329 1 0.152777 0.0631712 0.754916
96 1 0.29701 0.0610029 0.77398
11 1 0.234208 0.151884 0.68296
279 1 0.407897 0.0104356 0.695953
360 1 0.46795 0.116969 0.764976
106 1 0.654607 0.00793169 0.788453
303 1 0.516283 0.00485428 0.772614
381 1 0.744812 0.053038 0.704514
280 1 0.713103 0.117664 0.804662
241 1 0.838473 0.104483 0.784182
246 1 0.954798 0.0932314 0.73751
217 1 0.131539 0.235829 0.701504
175 1 0.0154916 0.279588 0.731426
119 1 0.0638988 0.175549 0.774863
337 1 0.233829 0.27729 0.742168
378 1 0.489473 0.238225 0.739237
404 1 0.406006 0.315305 0.691641
78 1 0.34396 0.223093 0.750612
46 1 0.592498 0.296437 0.73344
21 1 0.58743 0.178327 0.779187
189 1 0.765919 0.175351 0.688018
361 1 0.704939 0.240123 0.788581
394 1 0.813396 0.303677 0.731074
28 1 0.911028 0.220194 0.683565
85 1 0.934307 0.221211 0.804468
268 1 0.135679 0.381656 0.737894
334 1 0.0425324 0.456086 0.789238
449 1 0.249245 0.470741 0.772697
467 1 0.344632 0.335918 0.806703
216 1 0.475998 0.36613 0.781257
195 1 0.360628 0.470654 0.725698
304 1 0.448712 0.472749 0.830116
429 1 0.592917 0.42819 0.761957
209 1 0.701078 0.351519 0.695928
301 1 0.717586 0.47121 0.702802
182 1 0.832312 0.425902 0.761439
201 1 0.950816 0.372706 0.78346
77 1 0.937802 0.48735 0.706102
168 1 0.920277 0.488418 0.828217
476 1 0.138985 0.531248 0.758602
493 1 0.0268639 0.593219 0.743237
296 1 0.116782 0.636491 0.82781
38 1 0.228702 0.569666 0.695317
299 1 0.243401 0.631771 0.807311
32 1 0.413631 0.575386 0.773233