LAMMPS (3 Mar 2020)
# 3d Lennard-Jones melt

# variable and loop commands for the epsilon loop

units		lj #reduced unit
atom_style	atomic

#lattice type is chosen as fcc
lattice		fcc 0.8442
Lattice spacing in x,y,z = 1.6796 1.6796 1.6796

#defining the region of the block taken
region		box block 0 12 0 12 0 12

#2 types of atom are used in the simulation
create_box	2 box
Created orthogonal box = (0 0 0) to (20.1552 20.1552 20.1552)
  1 by 1 by 2 MPI processor grid

#defining the region to make nano particle
region      liq sphere 6 6 6 2     #speherical region is generated to create nanoparticle
create_atoms	1 region liq        # created noparticle inside the specified region
Created 141 atoms
  create_atoms CPU = 0.000999168 secs


#defining the region to fill the remaning space with other atom
region      liqbox sphere 6 6 6 2 side out #remaining space outside the sphere
create_atoms 2 region liqbox   #2nd type of atom created in the defined region
Created 6771 atoms
  create_atoms CPU = 0.00221518 secs

#masses defined for both atom type
mass		* 1.0

group   np type 1
141 atoms in group np
group   liq type 2
6771 atoms in group liq

velocity	liq create 1.0 87287

pair_style	lj/cut 3.5

#Setting the loop based on the epsilon
label       epsloop  #loop named as epsloop
variable    a loop 10   #loop parameter defined
variable    eps equal 0.5+($a-1)*0.5
variable    eps equal 0.5+(1-1)*0.5
if "${eps} > 2" then "variable eps equal 2.0+($a-4)*2.0" #epsilon value will increase at rate of 0.5 from 0.5 till 2.0


#Seeting the pair coefficient for all types of interaction
pair_coeff	1 1 10.0 1.0 3.5  # epsilon sigma and rcut is defined repectively
pair_coeff	1 2 ${eps} 1.0 3.5
pair_coeff	1 2 0.5 1.0 3.5
pair_coeff	2 2 0.8 1.0 3.5 # Use epsilon(nanoparticle)=10.0


minimize  1.0e-4 1.0e-6 100 1000
WARNING: Using 'neigh_modify every 1 delay 0 check yes' setting during minimization (../min.cpp:190)
Neighbor list info ...
  update every 1 steps, delay 0 steps, check yes
  max neighbors/atom: 2000, page size: 100000
  master list distance cutoff = 3.8
  ghost atom cutoff = 3.8
  binsize = 1.9, bins = 11 11 11
  1 neighbor lists, perpetual/occasional/extra = 1 0 0
  (1) pair lj/cut, perpetual
      attributes: half, newton on
      pair build: half/bin/atomonly/newton
      stencil: half/bin/3d/newton
      bin: standard
Per MPI rank memory allocation (min/avg/max) = 5.796 | 5.796 | 5.796 Mbytes
Step Temp E_pair E_mol TotEng Press 
       0   0.97959774   -6.5333888            0   -5.0642048    -5.340646 
       5   0.97959774   -6.6832008            0   -5.2140167   -4.5690318 
Loop time of 0.0869904 on 2 procs for 5 steps with 6912 atoms

99.4% CPU use with 2 MPI tasks x no OpenMP threads

Minimization stats:
  Stopping criterion = energy tolerance
  Energy initial, next-to-last, final = 
        -6.53338880823     -6.68260601779     -6.68320075834
  Force two-norm initial, final = 718.609 171.522
  Force max component initial, final = 73.9714 14.048
  Final line search alpha, max atom move = 0.00574099 0.0806497
  Iterations, force evaluations = 5 9

MPI task timing breakdown:
Section |  min time  |  avg time  |  max time  |%varavg| %total
---------------------------------------------------------------
Pair    | 0.061594   | 0.062098   | 0.062602   |   0.2 | 71.38
Neigh   | 0.021102   | 0.021208   | 0.021314   |   0.1 | 24.38
Comm    | 0.0020628  | 0.002459   | 0.0028552  |   0.8 |  2.83
Output  | 0          | 0          | 0          |   0.0 |  0.00
Modify  | 0          | 0          | 0          |   0.0 |  0.00
Other   |            | 0.001226   |            |       |  1.41

Nlocal:    3456 ave 3456 max 3456 min
Histogram: 2 0 0 0 0 0 0 0 0 0
Nghost:    7979 ave 7979 max 7979 min
Histogram: 2 0 0 0 0 0 0 0 0 0
Neighs:    345168 ave 345268 max 345068 min
Histogram: 1 0 0 0 0 0 0 0 0 1

Total # of neighbors = 690336
Ave neighs/atom = 99.875
Neighbor list builds = 3
Dangerous builds = 1

neighbor	0.3 bin   #skin factor is taken to 0.3
neigh_modify	every 20 delay 0 check no
timestep 0.005
variable nthermo equal 1000
variable temp equal 1.0
variable tdamp equal 1.0
variable pext equal 1.0
variable pdamp equal 10.0
variable Nevery equal 1000
variable Nfreq equal 100000
variable Nrepeat equal 100
reset_timestep 0

#Using Npt to Calculate the rdf

fix 		intnpt all npt temp ${temp} ${temp} ${tdamp} iso ${pext} ${pext} ${pdamp}
fix 		intnpt all npt temp 1 ${temp} ${tdamp} iso ${pext} ${pext} ${pdamp}
fix 		intnpt all npt temp 1 1 ${tdamp} iso ${pext} ${pext} ${pdamp}
fix 		intnpt all npt temp 1 1 1 iso ${pext} ${pext} ${pdamp}
fix 		intnpt all npt temp 1 1 1 iso 1 ${pext} ${pdamp}
fix 		intnpt all npt temp 1 1 1 iso 1 1 ${pdamp}
fix 		intnpt all npt temp 1 1 1 iso 1 1 10
dump		id all atom 1000 out.dump.npt.${eps}.lammpstrj
dump		id all atom 1000 out.dump.npt.0.5.lammpstrj
thermo		${nthermo}
thermo		1000
thermo_style custom step pe ke etotal press temp vol density
restart 25000 restartnpt1.data restartnpt2.data
run		  50000
Per MPI rank memory allocation (min/avg/max) = 5.303 | 5.303 | 5.303 Mbytes
Step PotEng KinEng TotEng Press Temp Volume Density 
       0   -6.6832008     1.469184   -5.2140167   -4.5690318   0.97959774    8187.6333       0.8442 
    1000   -5.7288656    1.2797669   -4.4490987    1.8674656   0.85330138    7917.4468   0.87300871 
    2000   -5.1903853    1.4609422    -3.729443    1.5830022   0.97410241    8735.2287   0.79127866 
    3000   -4.9277901    1.4926243   -3.4351657    1.1632335   0.99522686    9300.7687   0.74316438 
    4000   -4.8462343    1.4965052   -3.3497291   0.93062048   0.99781446    9538.2464   0.72466151 
    5000   -4.8434438     1.505529   -3.3379148   0.93079243    1.0038312    9559.9425    0.7230169 
    6000   -4.8422646    1.5005097   -3.3417549    1.0612747    1.0004846    9543.7344    0.7242448 
    7000   -4.8397747    1.4922668   -3.3475079   0.99046605    0.9949885    9539.5954   0.72455903 
    8000   -4.8423344    1.4847704    -3.357564    1.0382616   0.98999015    9524.8107   0.72568372 
    9000    -4.827414    1.4865484   -3.3408656    1.0549823   0.99117564    9543.1962   0.72428564 
   10000   -4.8550435    1.5055296   -3.3495139   0.98375845    1.0038316    9512.2425   0.72664253 
   11000   -4.8636465    1.5128878   -3.3507586   0.97293308    1.0087378    9506.8241   0.72705668 
   12000   -4.8298446    1.4826853   -3.3471593    1.0892566   0.98859991    9513.4708   0.72654872 
   13000   -4.8370176    1.5116891   -3.3253285   0.95161185    1.0079385    9552.7394   0.72356208 
   14000   -4.8688916    1.5197289   -3.3491627    1.0030853    1.0132992    9489.8992   0.72835336 
   15000   -4.8499392    1.5117278   -3.3382114   0.94876551    1.0079644    9529.4782   0.72532828 
   16000    -4.835141    1.5017389   -3.3334022   0.94669101    1.0013041     9576.855   0.72174007 
   17000   -4.8670014    1.4817329   -3.3852685   0.99135114   0.98796487    9478.9303    0.7291962 
   18000   -4.8329667    1.5227249   -3.3102419   0.90603974    1.0152968    9599.0352   0.72007237 
   19000   -4.8457497    1.4941251   -3.3516246    0.9680769   0.99622755    9531.5242   0.72517258 
   20000    -4.874386    1.4975025   -3.3768835   0.94797937   0.99847946    9484.2268   0.72878898 
   21000   -4.8405136    1.4865084   -3.3540052    1.0206155     0.991149    9550.0264   0.72376764 
   22000    -4.866783    1.5065224   -3.3602606   0.96977114    1.0044936    9528.6336   0.72539257 
   23000   -4.8851184    1.4900841   -3.3950343   0.96620046   0.99353314    9473.1103    0.7296442 
   24000    -4.863723     1.515041    -3.348682   0.96593713    1.0101735    9513.2354    0.7265667 
   25000   -4.8325441    1.5030921    -3.329452    1.0244392    1.0022064    9574.8058   0.72189454 
   26000   -4.8639581    1.4828522   -3.3811059   0.94739884   0.98871116    9517.2107   0.72626321 
   27000   -4.8570135    1.4984151   -3.3585984    0.9384776   0.99908793    9532.9235   0.72506614 
   28000   -4.8387802    1.5110811   -3.3276991   0.95709168    1.0075331    9581.6854   0.72137622 
   29000   -4.8571882    1.4799534   -3.3772348    1.1326579   0.98677837    9451.4316   0.73131778 
   30000   -4.8363882    1.5038916   -3.3324966   0.97990281    1.0027395    9556.0117   0.72331431 
   31000   -4.8153537    1.4949434   -3.3204104   0.99959707   0.99677312    9568.1186   0.72239907 
   32000   -4.8622342    1.5017432    -3.360491   0.97495983     1.001307    9509.8684   0.72682394 
   33000   -4.8393131    1.4866759   -3.3526372    0.9607315   0.99126069    9567.1405   0.72247293 
   34000   -4.8448885    1.4829047   -3.3619838   0.97723828   0.98874616    9545.0322   0.72414633 
   35000   -4.8758762    1.5005648   -3.3753114   0.99535645    1.0005213    9459.4256   0.73069976 
   36000   -4.8380724    1.4967661   -3.3413062    1.0144211   0.99798846    9534.5185   0.72494484 
   37000   -4.8605042    1.5145944   -3.3459098    1.0794857    1.0098757    9491.7605   0.72821054 
   38000   -4.8531403    1.5127077   -3.3404326    0.9977892    1.0086177    9528.9709   0.72536689 
   39000   -4.8476305    1.5057523   -3.3418782    1.1043208    1.0039801    9501.7123   0.72744783 
   40000   -4.8418764    1.5049402   -3.3369362    1.0728697    1.0034387    9511.8833   0.72666998 
   41000   -4.8365732    1.5131296   -3.3234436    1.0017834     1.008899    9553.5718   0.72349903 
   42000   -4.8398392    1.5169482   -3.3228911   0.99309156    1.0114451    9558.9573   0.72309142 
   43000   -4.8430667    1.4968969   -3.3461698    1.0407498   0.99807565     9526.679    0.7255414 
   44000   -4.8248165    1.4922413   -3.3325753    1.0295376   0.99497147     9547.358   0.72396992 
   45000   -4.8510745    1.5002065   -3.3508681    1.0143712    1.0002824    9511.6678   0.72668644 
   46000   -4.8266486    1.4778786     -3.34877    1.1018612   0.98539498    9542.6691   0.72432565 
   47000   -4.8847483    1.5224328   -3.3623155    1.1296586     1.015102    9426.8489   0.73322486 
   48000   -4.8298538    1.5053301   -3.3245237   0.99113315    1.0036986    9563.6432   0.72273712 
   49000   -4.8313674    1.5070257   -3.3243417    1.1241039    1.0048291    9504.3283   0.72724761 
   50000    -4.846139    1.5042702   -3.3418687    1.0488838    1.0029919    9519.0187   0.72612526 
Loop time of 279.509 on 2 procs for 50000 steps with 6912 atoms

Performance: 77278.325 tau/day, 178.885 timesteps/s
99.2% CPU use with 2 MPI tasks x no OpenMP threads

MPI task timing breakdown:
Section |  min time  |  avg time  |  max time  |%varavg| %total
---------------------------------------------------------------
Pair    | 229.92     | 234.98     | 240.04     |  33.0 | 84.07
Neigh   | 24.761     | 25.04      | 25.318     |   5.6 |  8.96
Comm    | 5.9568     | 11.291     | 16.626     | 158.8 |  4.04
Output  | 0.17879    | 0.17907    | 0.17934    |   0.1 |  0.06
Modify  | 7.3613     | 7.3716     | 7.3819     |   0.4 |  2.64
Other   |            | 0.6483     |            |       |  0.23

Nlocal:    3456 ave 3457 max 3455 min
Histogram: 1 0 0 0 0 0 0 0 0 1
Nghost:    7408.5 ave 7437 max 7380 min
Histogram: 1 0 0 0 0 0 0 0 0 1
Neighs:    286399 ave 290845 max 281953 min
Histogram: 1 0 0 0 0 0 0 0 0 1

Total # of neighbors = 572798
Ave neighs/atom = 82.8701
Neighbor list builds = 2500
Dangerous builds not checked
unfix   intnpt
undump  id


#Using Nvt to calculate the rdf

fix         intnvt all nvt temp ${temp} ${temp} ${tdamp}
fix         intnvt all nvt temp 1 ${temp} ${tdamp}
fix         intnvt all nvt temp 1 1 ${tdamp}
fix         intnvt all nvt temp 1 1 1
compute     rdfnvt all rdf 100 1 1 1 2 2 2
fix         rdfnvt all ave/time ${Nevery} ${Nrepeat} ${Nfreq} c_rdfnvt[*] file systemnvt.rdf.${eps} mode vector ave window 2
fix         rdfnvt all ave/time 1000 ${Nrepeat} ${Nfreq} c_rdfnvt[*] file systemnvt.rdf.${eps} mode vector ave window 2
fix         rdfnvt all ave/time 1000 100 ${Nfreq} c_rdfnvt[*] file systemnvt.rdf.${eps} mode vector ave window 2
fix         rdfnvt all ave/time 1000 100 100000 c_rdfnvt[*] file systemnvt.rdf.${eps} mode vector ave window 2
fix         rdfnvt all ave/time 1000 100 100000 c_rdfnvt[*] file systemnvt.rdf.0.5 mode vector ave window 2
dump        idnvt all atom 1000 out.dump.nvt.${eps}.lammpstrj
dump        idnvt all atom 1000 out.dump.nvt.0.5.lammpstrj
thermo      ${nthermo}
thermo      1000
thermo_style custom step pe ke etotal press temp vol density
restart     100000 restartnvt1.data restartnvt2.data
run         200000
Neighbor list info ...
  update every 20 steps, delay 0 steps, check no
  max neighbors/atom: 2000, page size: 100000
  master list distance cutoff = 3.8
  ghost atom cutoff = 3.8
  binsize = 1.9, bins = 12 12 12
  2 neighbor lists, perpetual/occasional/extra = 1 1 0
  (1) pair lj/cut, perpetual
      attributes: half, newton on
      pair build: half/bin/atomonly/newton
      stencil: half/bin/3d/newton
      bin: standard
  (2) compute rdf, occasional, copy from (1)
      attributes: half, newton on
      pair build: copy
      stencil: none
      bin: none
Per MPI rank memory allocation (min/avg/max) = 4.924 | 4.924 | 4.924 Mbytes
Step PotEng KinEng TotEng Press Temp Volume Density 
   50000    -4.846139    1.5042702   -3.3418687    1.0488838    1.0029919    9519.0187   0.72612526 
   51000   -4.8428663    1.5031864   -3.3396799   0.99122992    1.0022693    9519.0187   0.72612526 
   52000   -4.8525245    1.5298917   -3.3226328    1.0519695    1.0200754    9519.0187   0.72612526 
   53000   -4.8550082    1.5193816   -3.3356266   0.95405779    1.0130677    9519.0187   0.72612526 
   54000   -4.8541635     1.506171   -3.3479925    1.0289042    1.0042593    9519.0187   0.72612526 
   55000   -4.8476603    1.4864404   -3.3612199    1.0260311   0.99110365    9519.0187   0.72612526 
   56000   -4.8615378    1.4915205   -3.3700173   0.94158612    0.9944909    9519.0187   0.72612526 
   57000   -4.8379029    1.4850348   -3.3528681   0.98028725   0.99016645    9519.0187   0.72612526 
   58000   -4.8570819    1.4880469    -3.369035   0.96152475   0.99217481    9519.0187   0.72612526 
   59000   -4.8611317    1.4632324   -3.3978993   0.94469844   0.97562941    9519.0187   0.72612526 
   60000   -4.8412717    1.4752857    -3.365986    1.0280679   0.98366608    9519.0187   0.72612526 
   61000   -4.8333095    1.4684249   -3.3648846    1.1176892   0.97909158    9519.0187   0.72612526 
   62000   -4.8654712    1.4873164   -3.3781548   0.95304922   0.99168774    9519.0187   0.72612526 
   63000   -4.8469692    1.4889361   -3.3580331   0.98635996   0.99276766    9519.0187   0.72612526 
   64000   -4.8665886    1.5292867   -3.3373019   0.99480937     1.019672    9519.0187   0.72612526 
   65000   -4.8481007    1.5145877    -3.333513      1.00972    1.0098713    9519.0187   0.72612526 
   66000   -4.8492121     1.500856    -3.348356    1.0315648    1.0007155    9519.0187   0.72612526 
   67000    -4.850555    1.5254153   -3.3251398   0.99895048    1.0170907    9519.0187   0.72612526 
   68000   -4.8527286    1.5039879   -3.3487407    0.9662162    1.0028037    9519.0187   0.72612526 
   69000   -4.8518005    1.4955091   -3.3562914   0.96827619   0.99715031    9519.0187   0.72612526 
   70000   -4.8750985    1.5006646   -3.3744339   0.98343442    1.0005878    9519.0187   0.72612526 
   71000   -4.8470448    1.4820478    -3.364997   0.99256363   0.98817482    9519.0187   0.72612526 
   72000   -4.8545318     1.499549   -3.3549827   0.95235333   0.99984399    9519.0187   0.72612526 
   73000   -4.8684339    1.5132492   -3.3551848   0.99550156    1.0089787    9519.0187   0.72612526 
   74000   -4.8316891     1.507176   -3.3245131    1.0920474    1.0049294    9519.0187   0.72612526 
   75000   -4.8489675    1.5151889   -3.3337786    1.0932924    1.0102721    9519.0187   0.72612526 
   76000   -4.8367088    1.5025429   -3.3341659      1.03158    1.0018402    9519.0187   0.72612526 
   77000   -4.8523901    1.5154439   -3.3369461    1.0306183    1.0104421    9519.0187   0.72612526 
   78000   -4.8447154     1.526011   -3.3187044    1.0946558    1.0174879    9519.0187   0.72612526 
   79000   -4.8466292    1.5068183   -3.3398109    1.0515787    1.0046909    9519.0187   0.72612526 
   80000   -4.8628823    1.4964776   -3.3664047   0.98841808   0.99779611    9519.0187   0.72612526 
   81000   -4.8628022    1.5032138   -3.3595883   0.93537307    1.0022876    9519.0187   0.72612526 
   82000   -4.8656633    1.4909291   -3.3747342   0.92715628   0.99409657    9519.0187   0.72612526 
   83000   -4.8672698    1.4821886   -3.3850812   0.91375471   0.98826868    9519.0187   0.72612526 
   84000   -4.8592876    1.4656783   -3.3936094   0.94199544   0.97726023    9519.0187   0.72612526 
   85000   -4.8581739    1.4850541   -3.3731198   0.99664219   0.99017934    9519.0187   0.72612526 
   86000   -4.8615476    1.4948186    -3.366729   0.98481351   0.99668994    9519.0187   0.72612526 
   87000   -4.8544388    1.4929498    -3.361489    1.0079322   0.99544389    9519.0187   0.72612526 
   88000   -4.8497337     1.492519   -3.3572147    1.0587788   0.99515667    9519.0187   0.72612526 
   89000   -4.8555324    1.4967558   -3.3587766     1.008133   0.99798161    9519.0187   0.72612526 
   90000    -4.838528    1.5169006   -3.3216273    1.0573327    1.0114134    9519.0187   0.72612526 
   91000   -4.8453751    1.5092281    -3.336147    1.0631755    1.0062976    9519.0187   0.72612526 
   92000   -4.8520348     1.504501   -3.3475339   0.99530759    1.0031458    9519.0187   0.72612526 
   93000   -4.8264203    1.4956547   -3.3307655    1.1181188   0.99724744    9519.0187   0.72612526 
   94000   -4.8497029    1.5017468   -3.3479562   0.96434397    1.0013094    9519.0187   0.72612526 
   95000   -4.8495346      1.50058   -3.3489545    1.0600058    1.0005314    9519.0187   0.72612526 
   96000   -4.8644943    1.5028486   -3.3616457   0.94106694     1.002044    9519.0187   0.72612526 
   97000   -4.8671173     1.510166   -3.3569513   0.95610177     1.006923    9519.0187   0.72612526 
   98000   -4.8490787    1.4699534   -3.3791253    1.0178279   0.98011075    9519.0187   0.72612526 
   99000   -4.8740909    1.5011906   -3.3729003   0.93878259    1.0009385    9519.0187   0.72612526 
  100000   -4.8616401    1.5042767   -3.3573635   0.99851273    1.0029962    9519.0187   0.72612526 
  101000   -4.8736132    1.5175915   -3.3560217   0.89457427    1.0118741    9519.0187   0.72612526 
  102000   -4.8612491    1.5340535   -3.3271956    1.0095008    1.0228503    9519.0187   0.72612526 
  103000   -4.8428783    1.5173446   -3.3255337     1.061193    1.0117094    9519.0187   0.72612526 
  104000   -4.8385682    1.4999327   -3.3386355    1.0022862    1.0000998    9519.0187   0.72612526 
  105000    -4.850064    1.5023121   -3.3477519    1.0570267    1.0016863    9519.0187   0.72612526 
  106000   -4.8485293    1.5004483   -3.3480809   0.95642945    1.0004436    9519.0187   0.72612526 
  107000    -4.841041    1.5098915   -3.3311495    1.0296299      1.00674    9519.0187   0.72612526 
  108000   -4.8311256    1.4832016   -3.3479239    1.1273989   0.98894417    9519.0187   0.72612526 
  109000     -4.85461    1.5099292   -3.3446808    1.0087302    1.0067651    9519.0187   0.72612526 
  110000   -4.8444159    1.5047443   -3.3396716    1.0602321     1.003308    9519.0187   0.72612526 
  111000   -4.8459371    1.5207898   -3.3251473    1.0665098    1.0140066    9519.0187   0.72612526 
  112000   -4.8577754    1.5232664    -3.334509   0.97726496    1.0156578    9519.0187   0.72612526 
  113000   -4.8428638    1.5030384   -3.3398254    1.0381093    1.0021706    9519.0187   0.72612526 
  114000   -4.8547292     1.500479   -3.3542502   0.97506424    1.0004641    9519.0187   0.72612526 
  115000   -4.8542601    1.4956014   -3.3586587   0.99388732   0.99721188    9519.0187   0.72612526 
  116000   -4.8643168    1.4740291   -3.3902877    0.9260681   0.98282823    9519.0187   0.72612526 
  117000   -4.8643103    1.4996227   -3.3646876   0.90724496   0.99989313    9519.0187   0.72612526 
  118000   -4.8399658    1.4823326   -3.3576332    1.0435907   0.98836469    9519.0187   0.72612526 
  119000   -4.8528819    1.4897006   -3.3631813    1.0544263   0.99327745    9519.0187   0.72612526 
  120000   -4.8595028    1.4788822   -3.3806206    1.0399744   0.98606415    9519.0187   0.72612526 
  121000   -4.8571981    1.5034915   -3.3537067    1.0200755    1.0024727    9519.0187   0.72612526 
  122000   -4.8617545    1.5211014   -3.3406531   0.92974713    1.0142143    9519.0187   0.72612526 
  123000   -4.8369129    1.5052495   -3.3316634    1.0973249    1.0036449    9519.0187   0.72612526 
  124000   -4.8561433    1.5058868   -3.3502565    1.0301281    1.0040698    9519.0187   0.72612526 
  125000   -4.8602794    1.5041535   -3.3561259   0.94835992    1.0029141    9519.0187   0.72612526 
  126000   -4.8312502    1.5235618   -3.3076885    1.0692939    1.0158548    9519.0187   0.72612526 
  127000   -4.8462364    1.5186818   -3.3275546   0.99183893     1.012601    9519.0187   0.72612526 
  128000   -4.8405862    1.5039875   -3.3365987    1.1098371    1.0028034    9519.0187   0.72612526 
  129000   -4.8474184    1.4752713    -3.372147     1.039711   0.98365652    9519.0187   0.72612526 
  130000   -4.8577251     1.499079   -3.3586461   0.96958988   0.99953059    9519.0187   0.72612526 
  131000   -4.8438407    1.5023271   -3.3415136     1.048528    1.0016963    9519.0187   0.72612526 
  132000    -4.840638    1.5062676   -3.3343705    1.0636649    1.0043237    9519.0187   0.72612526 
  133000   -4.8551464    1.5273379   -3.3278085    1.0141993    1.0183726    9519.0187   0.72612526 
  134000   -4.8370913    1.5159192   -3.3211721    1.0773894     1.010759    9519.0187   0.72612526 
  135000   -4.8563826    1.5130611   -3.3433214   0.97787703    1.0088534    9519.0187   0.72612526 
  136000   -4.8485832    1.5215465   -3.3270367     1.061579    1.0145111    9519.0187   0.72612526 
  137000   -4.8620237    1.5156671   -3.3463566    1.0160016    1.0105909    9519.0187   0.72612526 
  138000   -4.8485692    1.4955593     -3.35301    1.0352108   0.99718377    9519.0187   0.72612526 
  139000   -4.8461167    1.4878378    -3.358279   0.99521452   0.99203538    9519.0187   0.72612526 
  140000   -4.8560006    1.4925115   -3.3634891   0.96655881   0.99515167    9519.0187   0.72612526 
  141000   -4.8442057    1.4851364   -3.3590694    1.0229917   0.99023417    9519.0187   0.72612526 
  142000   -4.8605239    1.4899607   -3.3705631   0.97643642   0.99345087    9519.0187   0.72612526 
  143000   -4.8437151    1.4806644   -3.3630507      1.02227   0.98725246    9519.0187   0.72612526 
  144000   -4.8590225    1.5171434   -3.3418791   0.97636519    1.0115753    9519.0187   0.72612526 
  145000   -4.8520702    1.5144332    -3.337637    1.0254206    1.0097682    9519.0187   0.72612526 
  146000   -4.8431761    1.5115995   -3.3315766    1.0931967    1.0078788    9519.0187   0.72612526 
  147000   -4.8593188    1.5199005   -3.3394183    1.0065374    1.0134136    9519.0187   0.72612526 
  148000   -4.8494697    1.4893348   -3.3601349   0.99899981   0.99303356    9519.0187   0.72612526 
  149000   -4.8460169    1.4807132   -3.3653037    1.0731065   0.98728498    9519.0187   0.72612526 
  150000   -4.8558238    1.4869477   -3.3688761    1.0164569   0.99144192    9519.0187   0.72612526 
  151000   -4.8546079    1.4782467   -3.3763612   0.93214335   0.98564043    9519.0187   0.72612526 
  152000   -4.8662805    1.4883585    -3.377922   0.92993489   0.99238259    9519.0187   0.72612526 
  153000   -4.8562468     1.469788   -3.3864588    1.0272376   0.98000047    9519.0187   0.72612526 
  154000   -4.8540214    1.4870682   -3.3669532   0.99667256   0.99152226    9519.0187   0.72612526 
  155000   -4.8448818    1.5114437   -3.3334381    1.0710942    1.0077749    9519.0187   0.72612526 
  156000   -4.8374482    1.5120705   -3.3253777    1.0943641    1.0081929    9519.0187   0.72612526 
  157000    -4.851477    1.4993433   -3.3521337    1.0184035   0.99970685    9519.0187   0.72612526 
  158000   -4.8609085    1.5076507   -3.3532578    1.0225104    1.0052459    9519.0187   0.72612526 
  159000   -4.8590912    1.4899214   -3.3691698   0.98139164   0.99342466    9519.0187   0.72612526 
  160000    -4.851993    1.4763297   -3.3756632   0.98826345   0.98436222    9519.0187   0.72612526 
  161000   -4.8622289    1.4942133   -3.3680156   0.92500784   0.99628634    9519.0187   0.72612526 
  162000   -4.8516964     1.493886   -3.3578104    1.0208773   0.99606811    9519.0187   0.72612526 
  163000   -4.8457272    1.4959952    -3.349732    1.0220165   0.99747446    9519.0187   0.72612526 
  164000   -4.8305026    1.5146811   -3.3158215     1.072485    1.0099335    9519.0187   0.72612526 
  165000   -4.8322783     1.502567   -3.3297113    1.1000495    1.0018563    9519.0187   0.72612526 
  166000   -4.8497372    1.5175646   -3.3321726    1.0137362    1.0118561    9519.0187   0.72612526 
  167000   -4.8469385     1.517581   -3.3293575     1.024672    1.0118671    9519.0187   0.72612526 
  168000   -4.8392788    1.4959674   -3.3433115    1.1035558   0.99745588    9519.0187   0.72612526 
  169000     -4.85833    1.4687794   -3.3895506   0.91521874   0.97932796    9519.0187   0.72612526 
  170000   -4.8683297    1.4861576    -3.382172   0.92063108   0.99091512    9519.0187   0.72612526 
  171000   -4.8425325    1.4803581   -3.3621745    1.0879652   0.98704819    9519.0187   0.72612526 
  172000   -4.8525217    1.4978284   -3.3546933   0.96942875   0.99869676    9519.0187   0.72612526 
  173000   -4.8608393    1.4992262   -3.3616131   0.91411348   0.99962877    9519.0187   0.72612526 
  174000   -4.8609693    1.4901765   -3.3707928   0.93826681   0.99359476    9519.0187   0.72612526 
  175000    -4.853154    1.4736343   -3.3795198    1.0066871   0.98256499    9519.0187   0.72612526 
  176000    -4.856257    1.4900298   -3.3662272    1.0178764   0.99349695    9519.0187   0.72612526 
  177000   -4.8513342    1.4889916   -3.3623426   0.98027899   0.99280471    9519.0187   0.72612526 
  178000    -4.856578     1.481713    -3.374865   0.96359736   0.98795162    9519.0187   0.72612526 
  179000   -4.8478914    1.4844169   -3.3634744    1.0781432   0.98975449    9519.0187   0.72612526 
  180000   -4.8559976    1.5115908   -3.3444068    1.0133463     1.007873    9519.0187   0.72612526 
  181000   -4.8522899    1.5206979   -3.3315921    1.0275498    1.0139453    9519.0187   0.72612526 
  182000   -4.8293945    1.5229439   -3.3064506    1.0892923    1.0154428    9519.0187   0.72612526 
  183000   -4.8421707    1.5135502   -3.3286205    1.1127543    1.0091795    9519.0187   0.72612526 
  184000   -4.8389507    1.5028128   -3.3361379    1.0582925    1.0020202    9519.0187   0.72612526 
  185000   -4.8423982    1.5061453    -3.336253    1.0599493    1.0042421    9519.0187   0.72612526 
  186000   -4.8467104    1.5032512   -3.3434592    1.0748017    1.0023125    9519.0187   0.72612526 
  187000   -4.8584012    1.5055527   -3.3528484    1.0207287    1.0038471    9519.0187   0.72612526 
  188000   -4.8539374    1.4817358   -3.3722016   0.97173958   0.98796677    9519.0187   0.72612526 
  189000   -4.8630155    1.4985574   -3.3644581   0.94092482    0.9991828    9519.0187   0.72612526 
  190000   -4.8523115    1.4945884   -3.3577232   0.98174391   0.99653642    9519.0187   0.72612526 
  191000   -4.8586049    1.4920487   -3.3665562    1.0207915   0.99484303    9519.0187   0.72612526 
  192000   -4.8678096    1.4916637   -3.3761459   0.92392528   0.99458638    9519.0187   0.72612526 
  193000   -4.8472353    1.4888753     -3.35836    1.0555137   0.99272715    9519.0187   0.72612526 
  194000   -4.8437543    1.4961497   -3.3476047     1.049446   0.99757743    9519.0187   0.72612526 
  195000   -4.8593427    1.5206922   -3.3386505   0.96602871    1.0139415    9519.0187   0.72612526 
  196000   -4.8488997    1.5055761   -3.3433236    1.0140035    1.0038626    9519.0187   0.72612526 
  197000   -4.8550016    1.4607056   -3.3942959    0.9474388   0.97394466    9519.0187   0.72612526 
  198000    -4.854062    1.4770695   -3.3769925    1.0226442    0.9848555    9519.0187   0.72612526 
  199000   -4.8546146    1.4972473   -3.3573673   0.96513951    0.9983093    9519.0187   0.72612526 
  200000   -4.8515667    1.4917078   -3.3598589    1.0594925   0.99461576    9519.0187   0.72612526 
  201000   -4.8551164    1.4857905   -3.3693259   0.97258542   0.99067032    9519.0187   0.72612526 
  202000   -4.8501448    1.4652132   -3.3849315   0.96923665   0.97695016    9519.0187   0.72612526 
  203000   -4.8529252    1.4564534   -3.3964718     1.003364   0.97110944    9519.0187   0.72612526 
  204000   -4.8470219    1.4871783   -3.3598437    1.0104925   0.99159564    9519.0187   0.72612526 
  205000   -4.8605923    1.5015233    -3.359069   0.99302351    1.0011604    9519.0187   0.72612526 
  206000   -4.8441414    1.5080485   -3.3360929    1.0649072    1.0055111    9519.0187   0.72612526 
  207000    -4.858361    1.5170285   -3.3413326   0.96846995    1.0114986    9519.0187   0.72612526 
  208000   -4.8471712    1.5047264   -3.3424448   0.98718388    1.0032961    9519.0187   0.72612526 
  209000   -4.8499616    1.5244602   -3.3255014    1.0362487    1.0164539    9519.0187   0.72612526 
  210000   -4.8601724      1.50025   -3.3599224   0.93378555    1.0003114    9519.0187   0.72612526 
  211000   -4.8530134    1.4760819   -3.3769315    1.0048358   0.98419698    9519.0187   0.72612526 
  212000   -4.8571795    1.4864811   -3.3706984   0.91785717   0.99113077    9519.0187   0.72612526 
  213000   -4.8533531    1.4929015   -3.3604516   0.95955156    0.9954117    9519.0187   0.72612526 
  214000   -4.8556618    1.4957551   -3.3599067    1.0070656   0.99731437    9519.0187   0.72612526 
  215000    -4.850784    1.5029683   -3.3478156    1.0144462    1.0021239    9519.0187   0.72612526 
  216000   -4.8364337    1.5079885   -3.3284452    1.0621922    1.0054712    9519.0187   0.72612526 
  217000   -4.8583583    1.5195623    -3.338796   0.97718794    1.0131881    9519.0187   0.72612526 
  218000   -4.8358081    1.4982422   -3.3375659    1.0439904   0.99897267    9519.0187   0.72612526 
  219000   -4.8507295    1.4994932   -3.3512363    1.0494799   0.99980677    9519.0187   0.72612526 
  220000   -4.8481279    1.5066407   -3.3414873   0.99814393    1.0045724    9519.0187   0.72612526 
  221000   -4.8455813    1.5164022   -3.3291791     1.044566    1.0110811    9519.0187   0.72612526 
  222000   -4.8506102    1.5232237   -3.3273864    1.0846104    1.0156294    9519.0187   0.72612526 
  223000   -4.8543429    1.5225669    -3.331776   0.95254933    1.0151915    9519.0187   0.72612526 
  224000   -4.8257052    1.4897794   -3.3359258    1.1042046   0.99332998    9519.0187   0.72612526 
  225000   -4.8503394    1.4999424   -3.3503969    0.9836547    1.0001063    9519.0187   0.72612526 
  226000   -4.8493627    1.5071685   -3.3421943    1.0808356    1.0049244    9519.0187   0.72612526 
  227000    -4.861074     1.502942   -3.3581321    1.0375355    1.0021063    9519.0187   0.72612526 
  228000    -4.858126    1.4872126   -3.3709134     1.003311   0.99161852    9519.0187   0.72612526 
  229000   -4.8757371    1.4999127   -3.3758244   0.93546294    1.0000865    9519.0187   0.72612526 
  230000   -4.8610929    1.4892724   -3.3718205   0.94093179   0.99299196    9519.0187   0.72612526 
  231000   -4.8565937    1.4756655   -3.3809282   0.94164497   0.98391933    9519.0187   0.72612526 
  232000   -4.8550362    1.4967053   -3.3583309   0.95867588   0.99794792    9519.0187   0.72612526 
  233000   -4.8331166    1.4879075    -3.345209    1.0702872   0.99208189    9519.0187   0.72612526 
  234000   -4.8614059    1.4967592   -3.3646466   0.96183833   0.99798387    9519.0187   0.72612526 
  235000   -4.8515899    1.4953793   -3.3562105    1.0279746    0.9970638    9519.0187   0.72612526 
  236000   -4.8387457    1.4835354   -3.3552103    1.0985323   0.98916674    9519.0187   0.72612526 
  237000   -4.8523868    1.5040767     -3.34831    1.0092955    1.0028629    9519.0187   0.72612526 
  238000   -4.8392066    1.4825649   -3.3566417     1.054187   0.98851961    9519.0187   0.72612526 
  239000   -4.8454351    1.4693018   -3.3761332    1.0231753   0.97967628    9519.0187   0.72612526 
  240000   -4.8728118    1.4828951   -3.3899167   0.87963016   0.98873975    9519.0187   0.72612526 
  241000   -4.8726252    1.4931732    -3.379452   0.88383458   0.99559284    9519.0187   0.72612526 
  242000   -4.8456299    1.4795626   -3.3660673   0.98136783   0.98651779    9519.0187   0.72612526 
  243000   -4.8567737    1.4879876   -3.3687861   0.98971496   0.99213526    9519.0187   0.72612526 
  244000   -4.8641561    1.5024576   -3.3616985   0.98376267    1.0017833    9519.0187   0.72612526 
  245000   -4.8554319    1.4885325   -3.3668994   0.95033928   0.99249861    9519.0187   0.72612526 
  246000   -4.8553654    1.4928968   -3.3624686   0.95266427   0.99540857    9519.0187   0.72612526 
  247000   -4.8474687    1.5115347    -3.335934   0.98546014    1.0078356    9519.0187   0.72612526 
  248000   -4.8364609    1.4966694   -3.3397916    1.0594773   0.99792395    9519.0187   0.72612526 
  249000   -4.8534364    1.4787029   -3.3747335   0.96012608    0.9859446    9519.0187   0.72612526 
  250000   -4.8575499    1.5130189    -3.344531   0.96897067    1.0088252    9519.0187   0.72612526 
Loop time of 1239.12 on 2 procs for 200000 steps with 6912 atoms

Performance: 69726.845 tau/day, 161.405 timesteps/s
99.3% CPU use with 2 MPI tasks x no OpenMP threads

MPI task timing breakdown:
Section |  min time  |  avg time  |  max time  |%varavg| %total
---------------------------------------------------------------
Pair    | 1035.6     | 1054.2     | 1072.8     |  57.2 | 85.08
Neigh   | 112        | 112.59     | 113.18     |   5.6 |  9.09
Comm    | 32.875     | 52.135     | 71.395     | 266.7 |  4.21
Output  | 0.73816    | 0.73914    | 0.74011    |   0.1 |  0.06
Modify  | 16.283     | 16.342     | 16.401     |   1.5 |  1.32
Other   |            | 3.126      |            |       |  0.25

Nlocal:    3456 ave 3488 max 3424 min
Histogram: 1 0 0 0 0 0 0 0 0 1
Nghost:    7447 ave 7454 max 7440 min
Histogram: 1 0 0 0 0 0 0 0 0 1
Neighs:    286478 ave 287622 max 285333 min
Histogram: 1 0 0 0 0 0 0 0 0 1

Total # of neighbors = 572955
Ave neighs/atom = 82.8928
Neighbor list builds = 10000
Dangerous builds not checked
unfix       intnvt
uncompute   rdfnvt
unfix       rdfnvt
undump      idnvt

next      a
jump      in.melt epsloop
variable    a loop 10   #loop parameter defined
variable    eps equal 0.5+($a-1)*0.5
variable    eps equal 0.5+(2-1)*0.5
if "${eps} > 2" then "variable eps equal 2.0+($a-4)*2.0" #epsilon value will increase at rate of 0.5 from 0.5 till 2.0


#Seeting the pair coefficient for all types of interaction
pair_coeff	1 1 10.0 1.0 3.5  # epsilon sigma and rcut is defined repectively
pair_coeff	1 2 ${eps} 1.0 3.5
pair_coeff	1 2 1 1.0 3.5
pair_coeff	2 2 0.8 1.0 3.5 # Use epsilon(nanoparticle)=10.0


minimize  1.0e-4 1.0e-6 100 1000
WARNING: Using 'neigh_modify every 1 delay 0 check yes' setting during minimization (../min.cpp:190)
Neighbor list info ...
  update every 1 steps, delay 0 steps, check yes
  max neighbors/atom: 2000, page size: 100000
  master list distance cutoff = 3.8
  ghost atom cutoff = 3.8
  binsize = 1.9, bins = 12 12 12
  1 neighbor lists, perpetual/occasional/extra = 1 0 0
  (1) pair lj/cut, perpetual
      attributes: half, newton on
      pair build: half/bin/atomonly/newton
      stencil: half/bin/3d/newton
      bin: standard
Per MPI rank memory allocation (min/avg/max) = 5.417 | 5.417 | 5.418 Mbytes
Step PotEng KinEng TotEng Press Temp Volume Density 
  250000   -4.8839811    1.5130189   -3.3709623   0.96382167    1.0088252    9519.0187   0.72612526 
  250100   -6.0014056    1.5130189   -4.4883867   -1.4217359    1.0088252    9519.0187   0.72612526 
Loop time of 2.04876 on 2 procs for 100 steps with 6912 atoms

99.7% CPU use with 2 MPI tasks x no OpenMP threads

Minimization stats:
  Stopping criterion = max iterations
  Energy initial, next-to-last, final = 
        -4.88398114774     -5.99771184473      -6.0014056222
  Force two-norm initial, final = 2277.36 289.102
  Force max component initial, final = 201.141 60.7516
  Final line search alpha, max atom move = 0.00233757 0.142011
  Iterations, force evaluations = 100 195

MPI task timing breakdown:
Section |  min time  |  avg time  |  max time  |%varavg| %total
---------------------------------------------------------------
Pair    | 1.6472     | 1.6564     | 1.6656     |   0.7 | 80.85
Neigh   | 0.25179    | 0.25872    | 0.26564    |   1.4 | 12.63
Comm    | 0.10391    | 0.10628    | 0.10865    |   0.7 |  5.19
Output  | 7.2589e-05 | 8.0523e-05 | 8.8457e-05 |   0.0 |  0.00
Modify  | 0          | 0          | 0          |   0.0 |  0.00
Other   |            | 0.02727    |            |       |  1.33

Nlocal:    3456 ave 3477 max 3435 min
Histogram: 1 0 0 0 0 0 0 0 0 1
Nghost:    7422.5 ave 7428 max 7417 min
Histogram: 1 0 0 0 0 0 0 0 0 1
Neighs:    287268 ave 288660 max 285877 min
Histogram: 1 0 0 0 0 0 0 0 0 1

Total # of neighbors = 574537
Ave neighs/atom = 83.1217
Neighbor list builds = 24
Dangerous builds not checked

neighbor	0.3 bin   #skin factor is taken to 0.3
neigh_modify	every 20 delay 0 check no
timestep 0.005
variable nthermo equal 1000
variable temp equal 1.0
variable tdamp equal 1.0
variable pext equal 1.0
variable pdamp equal 10.0
variable Nevery equal 1000
variable Nfreq equal 100000
variable Nrepeat equal 100
reset_timestep 0

#Using Npt to Calculate the rdf

fix 		intnpt all npt temp ${temp} ${temp} ${tdamp} iso ${pext} ${pext} ${pdamp}
fix 		intnpt all npt temp 1 ${temp} ${tdamp} iso ${pext} ${pext} ${pdamp}
fix 		intnpt all npt temp 1 1 ${tdamp} iso ${pext} ${pext} ${pdamp}
fix 		intnpt all npt temp 1 1 1 iso ${pext} ${pext} ${pdamp}
fix 		intnpt all npt temp 1 1 1 iso 1 ${pext} ${pdamp}
fix 		intnpt all npt temp 1 1 1 iso 1 1 ${pdamp}
fix 		intnpt all npt temp 1 1 1 iso 1 1 10
dump		id all atom 1000 out.dump.npt.${eps}.lammpstrj
dump		id all atom 1000 out.dump.npt.1.lammpstrj
thermo		${nthermo}
thermo		1000
thermo_style custom step pe ke etotal press temp vol density
restart 25000 restartnpt1.data restartnpt2.data
run		  50000
Per MPI rank memory allocation (min/avg/max) = 4.925 | 4.925 | 4.926 Mbytes
Step PotEng KinEng TotEng Press Temp Volume Density 
       0   -6.0014056    1.5130189   -4.4883867   -1.4217359    1.0088252    9519.0187   0.72612526 
    1000   -5.1673546    1.4735714   -3.6937831    1.5062277    0.9825231    8845.5964   0.78140576 
    2000   -4.9492643      1.52024   -3.4290242    1.0310732      1.01364    9378.9575    0.7369689 
    3000   -4.8697778    1.4883187   -3.3814591    1.1162777   0.99235605    9514.5146   0.72646901 
    4000   -4.8698109    1.4891307   -3.3806802    1.0166599   0.99289747    9513.2446   0.72656599 
    5000   -4.8852979    1.5092665   -3.3760314    1.0604837    1.0063232    9509.6984   0.72683693 
    6000   -4.8872968    1.5003405   -3.3869562    1.0198331    1.0003717    9499.2289   0.72763801 
    7000   -4.8951276    1.5261623   -3.3689653   0.93385025    1.0175887    9530.7259   0.72523332 
    8000   -4.9138619    1.5092046   -3.4046574    1.0370975     1.006282    9464.2307   0.73032877 
    9000   -4.8727334    1.4825584    -3.390175    1.0574179    0.9885153     9512.945   0.72658887 
   10000   -4.8798971     1.491606   -3.3882911    1.0359708   0.99454791    9500.0909   0.72757199 
   11000   -4.9045872     1.495117   -3.4094702   0.99491019   0.99688888    9472.6834   0.72967708 
   12000   -4.8981027    1.5027516   -3.3953511   0.93998648    1.0019794    9511.1661   0.72672477 
   13000   -4.8837048    1.4842281   -3.3994766   0.99302267   0.98962861     9518.744   0.72614623 
   14000   -4.8934281    1.5005787   -3.3928494   0.97280942    1.0005306    9519.7465   0.72606975 
   15000   -4.9051936    1.4969526   -3.4082411    1.0746707   0.99811277    9456.5591   0.73092125 
   16000   -4.8995143    1.5166776   -3.3828367   0.96335917    1.0112647    9512.0806    0.7266549 
   17000    -4.891041    1.4932603   -3.3977807    1.1627901    0.9956509    9457.5003   0.73084851 
   18000   -4.8899128    1.5121603   -3.3777525   0.96772036    1.0082527    9530.2278   0.72527123 
   19000    -4.907615     1.501995     -3.40562    1.1037852    1.0014749    9414.4314   0.73419198 
   20000   -4.8718985    1.5080526   -3.3638459    1.0129859    1.0055139    9556.7508   0.72325837 
   21000   -4.8989529    1.4970808   -3.4018721    1.0055393   0.99819828    9469.3687    0.7299325 
   22000   -4.9043149    1.5006465   -3.4036684    1.0179979    1.0005757    9439.2538   0.73226128 
   23000   -4.8573042    1.5330072    -3.324297   0.99537366    1.0221527    9575.9176   0.72181072 
   24000   -4.9034909    1.5068081   -3.3966827    1.0330297    1.0046841    9481.1766   0.72902344 
   25000   -4.9114949    1.5049558   -3.4065391   0.91484824     1.003449    9477.4188    0.7293125 
   26000   -4.8754372    1.4911201   -3.3843171   0.93644978   0.99422391    9563.8184   0.72272388 
   27000   -4.9096558    1.4966717   -3.4129841   0.92880529   0.99792553     9489.305   0.72839897 
   28000   -4.9099762    1.5045224   -3.4054539   0.97967908      1.00316    9473.8649   0.72958609 
   29000   -4.8896793    1.4924897   -3.3971896    1.0486287   0.99513711    9475.1512   0.72948704 
   30000   -4.8874173    1.5156177   -3.3717996     1.052829     1.010558    9501.7385   0.72744582 
   31000   -4.9071178     1.520122   -3.3869958    1.0182166    1.0135613    9471.0426    0.7298035 
   32000   -4.8907305    1.5104345    -3.380296   0.96586093     1.007102    9483.5636   0.72883995 
   33000   -4.8711584    1.5070395   -3.3641189   0.97300059    1.0048384    9529.2496   0.72534567 
   34000   -4.9033493    1.4902667   -3.4130826   0.94326866   0.99365492    9466.7856   0.73013168 
   35000   -4.9023481    1.5038771    -3.398471    1.0293591    1.0027298    9460.4647    0.7306195 
   36000   -4.8744365    1.4784967   -3.3959398   0.92989446   0.98580709     9568.148   0.72239685 
   37000   -4.9031855    1.4831788   -3.4200067    1.0450644   0.98892893    9457.1988   0.73087181 
   38000   -4.8639754     1.483525   -3.3804504   0.97096924   0.98915977     9553.776   0.72348357 
   39000   -4.8820337    1.4805055   -3.4015282    1.0509322   0.98714645    9496.7879   0.72782503 
   40000   -4.8935306    1.4855569   -3.4079738   0.95715647   0.99051454    9527.5993   0.72547131 
   41000   -4.9141356     1.498385   -3.4157506    0.9370658    0.9990679    9465.6539   0.73021896 
   42000   -4.8830049       1.5237   -3.3593049   0.98969496     1.015947    9510.6699   0.72676268 
   43000   -4.8895193    1.5242395   -3.3652798   0.94146904    1.0163067    9504.6582   0.72722236 
   44000    -4.911393    1.5333129   -3.3780801    1.0173503    1.0223565    9469.3081   0.72993718 
   45000   -4.8742789    1.5040733   -3.3702056    1.1513951    1.0028607    9490.3373   0.72831974 
   46000   -4.9019141     1.534382    -3.367532    0.9862251    1.0230694     9501.942   0.72743024 
   47000    -4.891799    1.5105305   -3.3812685     1.008931    1.0071661    9504.9585   0.72719938 
   48000    -4.889997    1.4954492   -3.3945478     1.019652   0.99711039    9491.8816   0.72820124 
   49000   -4.9036165     1.505274   -3.3983425   0.93261416    1.0036612    9499.8776   0.72758833 
   50000   -4.8918547     1.495473   -3.3963817   0.96506899   0.99712625    9530.5411   0.72524738 
Loop time of 303.385 on 2 procs for 50000 steps with 6912 atoms

Performance: 71196.643 tau/day, 164.807 timesteps/s
99.4% CPU use with 2 MPI tasks x no OpenMP threads

MPI task timing breakdown:
Section |  min time  |  avg time  |  max time  |%varavg| %total
---------------------------------------------------------------
Pair    | 255.52     | 258.18     | 260.84     |  16.6 | 85.10
Neigh   | 27.375     | 27.53      | 27.685     |   3.0 |  9.07
Comm    | 6.3595     | 8.8271     | 11.295     |  83.1 |  2.91
Output  | 0.17683    | 0.17711    | 0.17738    |   0.1 |  0.06
Modify  | 7.9171     | 7.9599     | 8.0028     |   1.5 |  2.62
Other   |            | 0.7112     |            |       |  0.23

Nlocal:    3456 ave 3461 max 3451 min
Histogram: 1 0 0 0 0 0 0 0 0 1
Nghost:    7484 ave 7491 max 7477 min
Histogram: 1 0 0 0 0 0 0 0 0 1
Neighs:    286480 ave 288368 max 284592 min
Histogram: 1 0 0 0 0 0 0 0 0 1

Total # of neighbors = 572960
Ave neighs/atom = 82.8935
Neighbor list builds = 2500
Dangerous builds not checked
unfix   intnpt
undump  id


#Using Nvt to calculate the rdf

fix         intnvt all nvt temp ${temp} ${temp} ${tdamp}
fix         intnvt all nvt temp 1 ${temp} ${tdamp}
fix         intnvt all nvt temp 1 1 ${tdamp}
fix         intnvt all nvt temp 1 1 1
compute     rdfnvt all rdf 100 1 1 1 2 2 2
fix         rdfnvt all ave/time ${Nevery} ${Nrepeat} ${Nfreq} c_rdfnvt[*] file systemnvt.rdf.${eps} mode vector ave window 2
fix         rdfnvt all ave/time 1000 ${Nrepeat} ${Nfreq} c_rdfnvt[*] file systemnvt.rdf.${eps} mode vector ave window 2
fix         rdfnvt all ave/time 1000 100 ${Nfreq} c_rdfnvt[*] file systemnvt.rdf.${eps} mode vector ave window 2
fix         rdfnvt all ave/time 1000 100 100000 c_rdfnvt[*] file systemnvt.rdf.${eps} mode vector ave window 2
fix         rdfnvt all ave/time 1000 100 100000 c_rdfnvt[*] file systemnvt.rdf.1 mode vector ave window 2
dump        idnvt all atom 1000 out.dump.nvt.${eps}.lammpstrj
dump        idnvt all atom 1000 out.dump.nvt.1.lammpstrj
thermo      ${nthermo}
thermo      1000
thermo_style custom step pe ke etotal press temp vol density
restart     100000 restartnvt1.data restartnvt2.data
run         200000
Neighbor list info ...
  update every 20 steps, delay 0 steps, check no
  max neighbors/atom: 2000, page size: 100000
  master list distance cutoff = 3.8
  ghost atom cutoff = 3.8
  binsize = 1.9, bins = 12 12 12
  2 neighbor lists, perpetual/occasional/extra = 1 1 0
  (1) pair lj/cut, perpetual
      attributes: half, newton on
      pair build: half/bin/atomonly/newton
      stencil: half/bin/3d/newton
      bin: standard
  (2) compute rdf, occasional, copy from (1)
      attributes: half, newton on
      pair build: copy
      stencil: none
      bin: none
Per MPI rank memory allocation (min/avg/max) = 4.925 | 4.925 | 4.925 Mbytes
Step PotEng KinEng TotEng Press Temp Volume Density 
   50000   -4.8918547     1.495473   -3.3963817   0.96506899   0.99712625    9530.5411   0.72524738 
   51000   -4.8842512    1.4895818   -3.3946694     0.957076   0.99319823    9530.5411   0.72524738 
   52000   -4.8883571    1.5258569   -3.3625002   0.99252405    1.0173851    9530.5411   0.72524738 
   53000   -4.8935326    1.5023719   -3.3911607   0.96406232    1.0017262    9530.5411   0.72524738 
   54000      -4.8838    1.5034387   -3.3803614   0.96882358    1.0024375    9530.5411   0.72524738 
   55000   -4.8745871     1.518918   -3.3556691   0.98121636    1.0127585    9530.5411   0.72524738 
   56000   -4.8735771    1.5032341    -3.370343     1.054015    1.0023011    9530.5411   0.72524738 
   57000   -4.8822039    1.5038443   -3.3783596    1.0265832     1.002708    9530.5411   0.72524738 
   58000   -4.8865828    1.4732628   -3.4133201   0.91154709   0.98231729    9530.5411   0.72524738 
   59000   -4.8770183    1.4794829   -3.3975354    0.9398652   0.98646466    9530.5411   0.72524738 
   60000   -4.8861112    1.4939699   -3.3921414    1.0042555   0.99612402    9530.5411   0.72524738 
   61000   -4.8847034    1.4976599   -3.3870436   0.99931857   0.99858437    9530.5411   0.72524738 
   62000   -4.8762528    1.4948656   -3.3813873    1.0135893   0.99672124    9530.5411   0.72524738 
   63000   -4.8731974    1.5083909   -3.3648065    1.0175301    1.0057395    9530.5411   0.72524738 
   64000   -4.8929005    1.5269875    -3.365913   0.93254621    1.0181389    9530.5411   0.72524738 
   65000   -4.8607688    1.5212551   -3.3395137    1.0848036    1.0143168    9530.5411   0.72524738 
   66000   -4.8727046    1.5060024   -3.3667022    1.0011995    1.0041469    9530.5411   0.72524738 
   67000   -4.8857244    1.5044785   -3.3812459   0.98635471    1.0031308    9530.5411   0.72524738 
   68000   -4.8805796    1.5054784   -3.3751012   0.99819118    1.0037975    9530.5411   0.72524738 
   69000   -4.8807454    1.5211887   -3.3595567    1.0268998    1.0142725    9530.5411   0.72524738 
   70000   -4.8724883    1.4938912   -3.3785971     1.039564   0.99607159    9530.5411   0.72524738 
   71000   -4.8769369    1.5059346   -3.3710023    1.0295788    1.0041016    9530.5411   0.72524738 
   72000   -4.8838765    1.5141841   -3.3696923    1.0180953    1.0096022    9530.5411   0.72524738 
   73000   -4.8743634     1.503092   -3.3712714   0.99909117    1.0022064    9530.5411   0.72524738 
   74000   -4.9012619    1.5131452   -3.3881167   0.89916879    1.0089094    9530.5411   0.72524738 
   75000   -4.8713067    1.4608461   -3.4104606    1.0236866   0.97403834    9530.5411   0.72524738 
   76000   -4.9036054    1.4819676   -3.4216378   0.89633195   0.98812136    9530.5411   0.72524738 
   77000   -4.8876226    1.4855149   -3.4021076   0.96442336   0.99048659    9530.5411   0.72524738 
   78000   -4.8806405     1.493891   -3.3867495   0.95157869   0.99607147    9530.5411   0.72524738 
   79000    -4.898205    1.4724574   -3.4257476   0.97061383   0.98178028    9530.5411   0.72524738 
   80000   -4.8870117    1.4762694   -3.4107422   0.93246743   0.98432203    9530.5411   0.72524738 
   81000   -4.8893609    1.4943355   -3.3950255    0.9395697   0.99636779    9530.5411   0.72524738 
   82000   -4.8692266     1.477132   -3.3920946    1.0352168   0.98489717    9530.5411   0.72524738 
   83000    -4.888911    1.4982569   -3.3906542   0.96292824   0.99898244    9530.5411   0.72524738 
   84000   -4.8858972    1.4996089   -3.3862883   0.96520628   0.99988392    9530.5411   0.72524738 
   85000   -4.8899596     1.510546   -3.3794136   0.96962612    1.0071764    9530.5411   0.72524738 
   86000   -4.8703062    1.4916668   -3.3786394   0.95208914   0.99458841    9530.5411   0.72524738 
   87000      -4.8855    1.4840638   -3.4014362    1.0049237   0.98951902    9530.5411   0.72524738 
   88000   -4.8741751    1.4746168   -3.3995583    1.0189876   0.98322012    9530.5411   0.72524738 
   89000   -4.8952298    1.5057849   -3.3894449   0.93727353    1.0040019    9530.5411   0.72524738 
   90000   -4.8977057    1.4975025   -3.4002032   0.89398531   0.99847946    9530.5411   0.72524738 
   91000   -4.8978173     1.480596   -3.4172214   0.87910626   0.98720682    9530.5411   0.72524738 
   92000   -4.8849131    1.4961991    -3.388714   0.98599325   0.99761041    9530.5411   0.72524738 
   93000   -4.8885217    1.5008559   -3.3876658   0.92526529    1.0007154    9530.5411   0.72524738 
   94000   -4.8642366    1.4805998   -3.3836368    1.0755082   0.98720936    9530.5411   0.72524738 
   95000   -4.8742243    1.4957167   -3.3785076    1.0160248   0.99728874    9530.5411   0.72524738 
   96000   -4.8872281    1.4943515   -3.3928766   0.93892992   0.99637848    9530.5411   0.72524738 
   97000   -4.8874474    1.5009813   -3.3864662   0.96395121     1.000799    9530.5411   0.72524738 
   98000   -4.8827845    1.4859221   -3.3968624   0.93529969   0.99075804    9530.5411   0.72524738 
   99000   -4.8916612    1.4813683   -3.4102928   0.95735296   0.98772179    9530.5411   0.72524738 
  100000   -4.8868457    1.5008657   -3.3859801   0.90339176    1.0007219    9530.5411   0.72524738 
  101000   -4.8736353    1.4924492   -3.3811861    0.9931219    0.9951101    9530.5411   0.72524738 
  102000   -4.8785482    1.4924852   -3.3860631   0.97065726   0.99513408    9530.5411   0.72524738 
  103000   -4.8836433    1.5003229   -3.3833204    0.9563323      1.00036    9530.5411   0.72524738 
  104000   -4.8803251    1.4862168   -3.3941083    1.0003383   0.99095454    9530.5411   0.72524738 
  105000   -4.8775905    1.4815975    -3.395993      1.03466   0.98787457    9530.5411   0.72524738 
  106000   -4.9005833     1.515461   -3.3851223   0.85993208    1.0104536    9530.5411   0.72524738 
  107000   -4.8791321    1.5112448   -3.3678874   0.90588268    1.0076423    9530.5411   0.72524738 
  108000   -4.8681522    1.5126227   -3.3555295    1.0323804    1.0085611    9530.5411   0.72524738 
  109000   -4.8799227    1.4996926   -3.3802301    1.0022424   0.99993975    9530.5411   0.72524738 
  110000   -4.8860943    1.4768951   -3.4091992   0.95135881   0.98473921    9530.5411   0.72524738 
  111000   -4.8887612    1.4731246   -3.4156366   0.96564699   0.98222515    9530.5411   0.72524738 
  112000   -4.8825805     1.492852   -3.3897284   0.99278861   0.99537868    9530.5411   0.72524738 
  113000   -4.8670413    1.4901815   -3.3768598    1.0388407   0.99359808    9530.5411   0.72524738 
  114000   -4.8777652    1.4962942    -3.381471   0.95741501   0.99767382    9530.5411   0.72524738 
  115000   -4.8852376    1.5038442   -3.3813934   0.96379513    1.0027079    9530.5411   0.72524738 
  116000   -4.8783457    1.5042589   -3.3740868    1.0147496    1.0029844    9530.5411   0.72524738 
  117000   -4.8930607    1.5286344   -3.3644263   0.92725827     1.019237    9530.5411   0.72524738 
  118000   -4.8765801    1.5020783   -3.3745018   0.98991515    1.0015304    9530.5411   0.72524738 
  119000   -4.8689222    1.5153141   -3.3536081     0.988097    1.0103555    9530.5411   0.72524738 
  120000   -4.8711321    1.4923789   -3.3787533    1.0096302    0.9950632    9530.5411   0.72524738 
  121000   -4.8795039    1.5122823   -3.3672216    1.0022496    1.0083341    9530.5411   0.72524738 
  122000   -4.8678693    1.4865494   -3.3813199    1.0665183   0.99117637    9530.5411   0.72524738 
  123000   -4.8865586    1.5042292   -3.3823294   0.99878173    1.0029646    9530.5411   0.72524738 
  124000   -4.8771274    1.4887304    -3.388397    1.0011413   0.99263057    9530.5411   0.72524738 
  125000   -4.8839068    1.5008841   -3.3830227   0.94187438    1.0007342    9530.5411   0.72524738 
  126000   -4.8888969    1.5084852   -3.3804117    0.9333524    1.0058023    9530.5411   0.72524738 
  127000   -4.8724512    1.4979847   -3.3744665   0.96414741   0.99880098    9530.5411   0.72524738 
  128000   -4.8871677     1.511259   -3.3759087   0.94654963    1.0076518    9530.5411   0.72524738 
  129000   -4.8687436    1.5272539   -3.3414897    1.0288191    1.0183166    9530.5411   0.72524738 
  130000   -4.8628574    1.5053186   -3.3575388    1.0446948    1.0036909    9530.5411   0.72524738 
  131000   -4.8715649    1.5069685   -3.3645964    1.0357931     1.004791    9530.5411   0.72524738 
  132000   -4.8804394    1.5115888   -3.3688506   0.95280336    1.0078717    9530.5411   0.72524738 
  133000   -4.8952992    1.5121516   -3.3831475   0.97361228    1.0082469    9530.5411   0.72524738 
  134000   -4.8926433    1.4913084   -3.4013348   0.99076243   0.99434947    9530.5411   0.72524738 
  135000   -4.8909413    1.5048131   -3.3861282   0.95851097    1.0033539    9530.5411   0.72524738 
  136000   -4.8972031    1.5026568   -3.3945463   0.96279247    1.0019162    9530.5411   0.72524738 
  137000   -4.8834377    1.4783036   -3.4051341   0.97568328   0.98567831    9530.5411   0.72524738 
  138000   -4.9029219    1.4685654   -3.4343566   0.91020344   0.97918525    9530.5411   0.72524738 
  139000   -4.8738476    1.5062867   -3.3675609     1.058658    1.0043364    9530.5411   0.72524738 
  140000   -4.8836339    1.5075034   -3.3761305   0.96561865    1.0051477    9530.5411   0.72524738 
  141000   -4.8980361    1.5202482   -3.3777878   0.90292923    1.0136455    9530.5411   0.72524738 
  142000    -4.891008    1.4895679   -3.4014402   0.94554692   0.99318893    9530.5411   0.72524738 
  143000   -4.8955184    1.5005445   -3.3949738   0.93964572    1.0005078    9530.5411   0.72524738 
  144000   -4.8868291    1.4857007   -3.4011284   0.97797026   0.99061042    9530.5411   0.72524738 
  145000    -4.888864    1.4967423   -3.3921217   0.98809227   0.99797258    9530.5411   0.72524738 
  146000     -4.88906    1.5024672   -3.3865928   0.95996301    1.0017898    9530.5411   0.72524738 
  147000   -4.8676914    1.4858419   -3.3818495    1.0483395   0.99070462    9530.5411   0.72524738 
  148000   -4.8673926    1.5023535   -3.3650391    1.0476616    1.0017139    9530.5411   0.72524738 
  149000   -4.8817604    1.5046077   -3.3771527   0.90541152    1.0032169    9530.5411   0.72524738 
  150000   -4.8916201    1.5019638   -3.3896563   0.91409398    1.0014541    9530.5411   0.72524738 
  151000   -4.8757948     1.479217   -3.3965778    1.0299848   0.98628736    9530.5411   0.72524738 
  152000   -4.8849088    1.4713755   -3.4135333   0.96271093   0.98105892    9530.5411   0.72524738 
  153000   -4.8909882    1.4965675   -3.3944207   0.92721461   0.99785604    9530.5411   0.72524738 
  154000    -4.886325     1.496342    -3.389983   0.97721414   0.99770569    9530.5411   0.72524738 
  155000   -4.8852971     1.501392   -3.3839052   0.98675795    1.0010728    9530.5411   0.72524738 
  156000   -4.8931783    1.5049767   -3.3882016   0.93801281     1.003463    9530.5411   0.72524738 
  157000   -4.8729962    1.4830951   -3.3899011    1.0126004   0.98887315    9530.5411   0.72524738 
  158000   -4.8877893    1.4831889   -3.4046004   0.98164664   0.98893564    9530.5411   0.72524738 
  159000   -4.8876436    1.5097809   -3.3778627   0.94474752    1.0066662    9530.5411   0.72524738 
  160000   -4.8830055    1.5206053   -3.3624001    1.0193991    1.0138836    9530.5411   0.72524738 
  161000   -4.8902467     1.512213   -3.3780336   0.97739994    1.0082879    9530.5411   0.72524738 
  162000   -4.8610419    1.4745138   -3.3865282    1.1236146   0.98315141    9530.5411   0.72524738 
  163000   -4.8965086    1.4787228   -3.4177858   0.90388817   0.98595785    9530.5411   0.72524738 
  164000   -4.8715251    1.4639002   -3.4076249   0.97944806   0.97607467    9530.5411   0.72524738 
  165000    -4.877205    1.4796403   -3.3975647   0.99912262   0.98656961    9530.5411   0.72524738 
  166000   -4.8800282    1.4920225   -3.3880057    1.0244286   0.99482562    9530.5411   0.72524738 
  167000   -4.8802685    1.4798757   -3.4003928   0.97227795   0.98672653    9530.5411   0.72524738 
  168000   -4.8826011    1.4704038   -3.4121973   0.89529252   0.98041107    9530.5411   0.72524738 
  169000   -4.8744605      1.48955   -3.3849104    1.0607692   0.99317704    9530.5411   0.72524738 
  170000    -4.891867    1.5163009    -3.375566   0.95323614    1.0110136    9530.5411   0.72524738 
  171000   -4.8639369    1.4878996   -3.3760372    1.0789928   0.99207662    9530.5411   0.72524738 
  172000   -4.8714848    1.5015906   -3.3698942    1.0053741    1.0012053    9530.5411   0.72524738 
  173000   -4.8684319    1.5143823   -3.3540495    1.0484743    1.0097343    9530.5411   0.72524738 
  174000    -4.881078     1.502625    -3.378453    1.0537686     1.001895    9530.5411   0.72524738 
  175000   -4.8798487    1.5026383   -3.3772104   0.97219336    1.0019038    9530.5411   0.72524738 
  176000   -4.8840899    1.5224423   -3.3616476   0.97290444    1.0151084    9530.5411   0.72524738 
  177000   -4.8822364    1.5043783   -3.3778581    1.0001501     1.003064    9530.5411   0.72524738 
  178000    -4.885021    1.5096526   -3.3753684   0.94413575    1.0065807    9530.5411   0.72524738 
  179000   -4.8803054    1.5052796   -3.3750258   0.97142855    1.0036649    9530.5411   0.72524738 
  180000   -4.8921964    1.4888446   -3.4033517   0.93414488   0.99270672    9530.5411   0.72524738 
  181000   -4.8830602    1.4892063   -3.3938539    0.9496947   0.99294787    9530.5411   0.72524738 
  182000   -4.8915755    1.4900748   -3.4015007   0.94211676   0.99352694    9530.5411   0.72524738 
  183000   -4.8893601    1.4781808   -3.4111793   0.94107847   0.98559646    9530.5411   0.72524738 
  184000   -4.8902902    1.4893722   -3.4009179   0.92855495    0.9930585    9530.5411   0.72524738 
  185000   -4.8790948     1.501667   -3.3774279     1.021378    1.0012562    9530.5411   0.72524738 
  186000   -4.8856679    1.5238246   -3.3618434     1.025903      1.01603    9530.5411   0.72524738 
  187000    -4.880107    1.5051996   -3.3749075    1.0093506    1.0036116    9530.5411   0.72524738 
  188000   -4.9086648    1.5188892   -3.3897756    0.8978384    1.0127393    9530.5411   0.72524738 
  189000   -4.8896764    1.4960769   -3.3935995   0.92029062   0.99752892    9530.5411   0.72524738 
  190000    -4.915746     1.509591    -3.406155     0.843758    1.0065396    9530.5411   0.72524738 
  191000   -4.8933614    1.5024941   -3.3908673   0.92188592    1.0018077    9530.5411   0.72524738 
  192000   -4.8659416    1.4808617     -3.38508    1.0973838   0.98738395    9530.5411   0.72524738 
  193000   -4.8913578    1.4953242   -3.3960336   0.96569791   0.99702708    9530.5411   0.72524738 
  194000   -4.8932087    1.4964407    -3.396768   0.98661024   0.99777149    9530.5411   0.72524738 
  195000    -4.894852    1.5068529   -3.3879991   0.93344522     1.004714    9530.5411   0.72524738 
  196000   -4.8759481    1.5071273   -3.3688208   0.97787613    1.0048969    9530.5411   0.72524738 
  197000   -4.8709057    1.4935389   -3.3773668    1.0369543   0.99583666    9530.5411   0.72524738 
  198000   -4.8781612    1.5105757   -3.3675856   0.89710673    1.0071962    9530.5411   0.72524738 
  199000    -4.884118    1.5078605   -3.3762576   0.90503073    1.0053858    9530.5411   0.72524738 
  200000   -4.8653047    1.4843083   -3.3809965    1.0232616   0.98968203    9530.5411   0.72524738 
  201000   -4.8806691    1.5010028   -3.3796663    1.0262431    1.0008133    9530.5411   0.72524738 
  202000   -4.8936956     1.485747   -3.4079486    0.9095708   0.99064131    9530.5411   0.72524738 
  203000   -4.8981399    1.4881418   -3.4099981   0.90286538   0.99223809    9530.5411   0.72524738 
  204000   -4.8665893    1.4773014   -3.3892879    1.0432344   0.98501012    9530.5411   0.72524738 
  205000   -4.8766168    1.4902747   -3.3863421    1.0627481   0.99366021    9530.5411   0.72524738 
  206000   -4.8857874      1.48645   -3.3993373   0.94558979   0.99111009    9530.5411   0.72524738 
  207000   -4.8965187    1.4833069   -3.4132118   0.92766719   0.98901433    9530.5411   0.72524738 
  208000   -4.8839881    1.4606734   -3.4233147   0.93907241   0.97392316    9530.5411   0.72524738 
  209000   -4.9028594    1.5085421   -3.3943173   0.93228376    1.0058402    9530.5411   0.72524738 
  210000   -4.8927607    1.5051602   -3.3876005   0.93307976    1.0035853    9530.5411   0.72524738 
  211000   -4.8951409    1.5263594   -3.3687815   0.96967744    1.0177202    9530.5411   0.72524738 
  212000   -4.8755149    1.5092907   -3.3662242    1.0263404    1.0063394    9530.5411   0.72524738 
  213000   -4.8571321    1.5106967   -3.3464353    1.0791594    1.0072769    9530.5411   0.72524738 
  214000   -4.8856394    1.5028373   -3.3828022   0.99344034    1.0020365    9530.5411   0.72524738 
  215000   -4.8803285    1.5011353   -3.3791933    1.0083665    1.0009017    9530.5411   0.72524738 
  216000   -4.8912581    1.5139026   -3.3773555   0.99084057    1.0094144    9530.5411   0.72524738 
  217000   -4.8784821    1.5169717   -3.3615104    0.9645736    1.0114608    9530.5411   0.72524738 
  218000   -4.8681368    1.5211087   -3.3470282    1.0403684    1.0142192    9530.5411   0.72524738 
  219000   -4.8745931    1.4953817   -3.3792114    1.0106071   0.99706537    9530.5411   0.72524738 
  220000   -4.8715959    1.4812552   -3.3903407   0.96256414   0.98764639    9530.5411   0.72524738 
  221000   -4.9017281    1.4913925   -3.4103356    0.8492005   0.99440554    9530.5411   0.72524738 
  222000   -4.8956398    1.4823986   -3.4132412   0.91134997   0.98840871    9530.5411   0.72524738 
  223000   -4.8850765    1.5152012   -3.3698753   0.99465393    1.0102803    9530.5411   0.72524738 
  224000   -4.8817335     1.504313   -3.3774204    1.0114649    1.0030205    9530.5411   0.72524738 
  225000   -4.8790858    1.5053707   -3.3737151   0.95540402    1.0037257    9530.5411   0.72524738 
  226000   -4.8938834     1.537233   -3.3566504   0.96495795    1.0249703    9530.5411   0.72524738 
  227000   -4.8796532    1.5060999   -3.3735533   0.98499431    1.0042119    9530.5411   0.72524738 
  228000   -4.8847414    1.5095524    -3.375189   0.99670716    1.0065139    9530.5411   0.72524738 
  229000   -4.8778904    1.5102555   -3.3676348     1.030932    1.0069827    9530.5411   0.72524738 
  230000   -4.8774775    1.5065311   -3.3709463    1.0250174    1.0044994    9530.5411   0.72524738 
  231000   -4.8869787    1.4918752   -3.3951035    0.9789729   0.99472737    9530.5411   0.72524738 
  232000   -4.8950053    1.4767837   -3.4182217   0.89556034    0.9846649    9530.5411   0.72524738 
  233000   -4.8858398    1.4901591   -3.3956807     0.993315   0.99358316    9530.5411   0.72524738 
  234000   -4.8874902    1.4949354   -3.3925548   0.95619484   0.99676781    9530.5411   0.72524738 
  235000   -4.8802467      1.47981   -3.4004366   0.96915345   0.98668276    9530.5411   0.72524738 
  236000   -4.8902872    1.4950228   -3.3952644    1.0041743   0.99682609    9530.5411   0.72524738 
  237000   -4.9026075    1.4880542   -3.4145533   0.89934416   0.99217968    9530.5411   0.72524738 
  238000   -4.8891474    1.4810538   -3.4080936   0.94154024   0.98751204    9530.5411   0.72524738 
  239000   -4.8626117    1.4786933   -3.3839183    1.0788289    0.9859382    9530.5411   0.72524738 
  240000   -4.8648395    1.4840467   -3.3807929    1.0674382   0.98950759    9530.5411   0.72524738 
  241000   -4.8786941    1.4984795   -3.3802145   0.99515379   0.99913091    9530.5411   0.72524738 
  242000   -4.8866805    1.5192686   -3.3674119   0.95984394    1.0129923    9530.5411   0.72524738 
  243000   -4.8696646    1.4939865   -3.3756781    1.0061537   0.99613513    9530.5411   0.72524738 
  244000   -4.8787937    1.5207035   -3.3580903   0.98533361     1.013949    9530.5411   0.72524738 
  245000   -4.8835175    1.5233291   -3.3601884   0.96961645    1.0156997    9530.5411   0.72524738 
  246000   -4.8857821     1.511058   -3.3747241   0.96395001    1.0075178    9530.5411   0.72524738 
  247000   -4.8820925     1.512952   -3.3691405    1.0377945    1.0087806    9530.5411   0.72524738 
  248000   -4.8847073    1.4925923   -3.3921151   0.95753631   0.99520551    9530.5411   0.72524738 
  249000   -4.8769431    1.5137255   -3.3632176    1.0007579    1.0092963    9530.5411   0.72524738 
  250000   -4.8710746    1.5042344   -3.3668402    1.0106787    1.0029681    9530.5411   0.72524738 
Loop time of 1138.65 on 2 procs for 200000 steps with 6912 atoms

Performance: 75879.480 tau/day, 175.647 timesteps/s
99.2% CPU use with 2 MPI tasks x no OpenMP threads

MPI task timing breakdown:
Section |  min time  |  avg time  |  max time  |%varavg| %total
---------------------------------------------------------------
Pair    | 955.88     | 968.65     | 981.41     |  41.0 | 85.07
Neigh   | 103.84     | 104.21     | 104.59     |   3.7 |  9.15
Comm    | 34.299     | 46.67      | 59.041     | 181.1 |  4.10
Output  | 0.67056    | 0.67149    | 0.67241    |   0.1 |  0.06
Modify  | 15.44      | 15.538     | 15.636     |   2.5 |  1.36
Other   |            | 2.908      |            |       |  0.26

Nlocal:    3456 ave 3481 max 3431 min
Histogram: 1 0 0 0 0 0 0 0 0 1
Nghost:    7455 ave 7471 max 7439 min
Histogram: 1 0 0 0 0 0 0 0 0 1
Neighs:    286162 ave 293952 max 278373 min
Histogram: 1 0 0 0 0 0 0 0 0 1

Total # of neighbors = 572325
Ave neighs/atom = 82.8016
Neighbor list builds = 10000
Dangerous builds not checked
unfix       intnvt
uncompute   rdfnvt
unfix       rdfnvt
undump      idnvt

next      a
jump      in.melt epsloop
variable    a loop 10   #loop parameter defined
variable    eps equal 0.5+($a-1)*0.5
variable    eps equal 0.5+(3-1)*0.5
if "${eps} > 2" then "variable eps equal 2.0+($a-4)*2.0" #epsilon value will increase at rate of 0.5 from 0.5 till 2.0


#Seeting the pair coefficient for all types of interaction
pair_coeff	1 1 10.0 1.0 3.5  # epsilon sigma and rcut is defined repectively
pair_coeff	1 2 ${eps} 1.0 3.5
pair_coeff	1 2 1.5 1.0 3.5
pair_coeff	2 2 0.8 1.0 3.5 # Use epsilon(nanoparticle)=10.0


minimize  1.0e-4 1.0e-6 100 1000
WARNING: Using 'neigh_modify every 1 delay 0 check yes' setting during minimization (../min.cpp:190)
Neighbor list info ...
  update every 1 steps, delay 0 steps, check yes
  max neighbors/atom: 2000, page size: 100000
  master list distance cutoff = 3.8
  ghost atom cutoff = 3.8
  binsize = 1.9, bins = 12 12 12
  1 neighbor lists, perpetual/occasional/extra = 1 0 0
  (1) pair lj/cut, perpetual
      attributes: half, newton on
      pair build: half/bin/atomonly/newton
      stencil: half/bin/3d/newton
      bin: standard
Per MPI rank memory allocation (min/avg/max) = 5.417 | 5.418 | 5.418 Mbytes
Step PotEng KinEng TotEng Press Temp Volume Density 
  250000   -4.9028267    1.5042344   -3.3985923    1.0029093    1.0029681    9530.5411   0.72524738 
  250100    -6.032323    1.5042344   -4.5280886   -1.4506858    1.0029681    9530.5411   0.72524738 
Loop time of 2.25822 on 2 procs for 100 steps with 6912 atoms

98.4% CPU use with 2 MPI tasks x no OpenMP threads

Minimization stats:
  Stopping criterion = max iterations
  Energy initial, next-to-last, final = 
        -4.90282671742     -6.02887249127      -6.0323230316
  Force two-norm initial, final = 2308.51 257.246
  Force max component initial, final = 196.415 45.836
  Final line search alpha, max atom move = 0.00237078 0.108667
  Iterations, force evaluations = 100 196

MPI task timing breakdown:
Section |  min time  |  avg time  |  max time  |%varavg| %total
---------------------------------------------------------------
Pair    | 1.7017     | 1.739      | 1.7763     |   2.8 | 77.01
Neigh   | 0.35679    | 0.35697    | 0.35714    |   0.0 | 15.81
Comm    | 0.090909   | 0.128      | 0.16509    |  10.4 |  5.67
Output  | 4.4285e-05 | 4.8793e-05 | 5.3301e-05 |   0.0 |  0.00
Modify  | 0          | 0          | 0          |   0.0 |  0.00
Other   |            | 0.03419    |            |       |  1.51

Nlocal:    3456 ave 3497 max 3415 min
Histogram: 1 0 0 0 0 0 0 0 0 1
Nghost:    7411 ave 7417 max 7405 min
Histogram: 1 0 0 0 0 0 0 0 0 1
Neighs:    286616 ave 296854 max 276377 min
Histogram: 1 0 0 0 0 0 0 0 0 1

Total # of neighbors = 573231
Ave neighs/atom = 82.9327
Neighbor list builds = 29
Dangerous builds not checked

neighbor	0.3 bin   #skin factor is taken to 0.3
neigh_modify	every 20 delay 0 check no
timestep 0.005
variable nthermo equal 1000
variable temp equal 1.0
variable tdamp equal 1.0
variable pext equal 1.0
variable pdamp equal 10.0
variable Nevery equal 1000
variable Nfreq equal 100000
variable Nrepeat equal 100
reset_timestep 0

#Using Npt to Calculate the rdf

fix 		intnpt all npt temp ${temp} ${temp} ${tdamp} iso ${pext} ${pext} ${pdamp}
fix 		intnpt all npt temp 1 ${temp} ${tdamp} iso ${pext} ${pext} ${pdamp}
fix 		intnpt all npt temp 1 1 ${tdamp} iso ${pext} ${pext} ${pdamp}
fix 		intnpt all npt temp 1 1 1 iso ${pext} ${pext} ${pdamp}
fix 		intnpt all npt temp 1 1 1 iso 1 ${pext} ${pdamp}
fix 		intnpt all npt temp 1 1 1 iso 1 1 ${pdamp}
fix 		intnpt all npt temp 1 1 1 iso 1 1 10
dump		id all atom 1000 out.dump.npt.${eps}.lammpstrj
dump		id all atom 1000 out.dump.npt.1.5.lammpstrj
thermo		${nthermo}
thermo		1000
thermo_style custom step pe ke etotal press temp vol density
restart 25000 restartnpt1.data restartnpt2.data
run		  50000
Per MPI rank memory allocation (min/avg/max) = 4.926 | 5.117 | 5.308 Mbytes
Step PotEng KinEng TotEng Press Temp Volume Density 
       0    -6.032323    1.5042344   -4.5280886   -1.4506858    1.0029681    9530.5411   0.72524738 
    1000    -5.217788    1.4781152   -3.7396729    1.5285307   0.98555272    8843.0385   0.78163179 
    2000   -4.9906232    1.5120236   -3.4785996    1.0062941    1.0081616    9372.3475   0.73748866 
    3000   -4.9418441    1.4976417   -3.4442024     1.054019   0.99857226    9469.6483   0.72991095 
    4000   -4.9552229    1.5042777   -3.4509453   0.99314159    1.0029969    9471.8283   0.72974296 
    5000   -4.9336639    1.4866845   -3.4469793    1.0063186   0.99126643    9478.6843   0.72921513 
    6000    -4.934025     1.492234    -3.441791    1.0700166   0.99496658    9497.1519   0.72779714 
    7000   -4.9404451    1.4964737   -3.4439714   0.98164685   0.99779351    9510.0997   0.72680626 
    8000   -4.9600211    1.5062976   -3.4537235    1.0535266    1.0043437     9458.874   0.73074237 
    9000   -4.9227437    1.4955891   -3.4271547    1.0318116   0.99720365    9502.9863    0.7273503 
   10000    -4.959246    1.4977393   -3.4615067    1.0288354   0.99863731    9453.0339   0.73119382 
   11000   -4.9450777     1.477659   -3.4674187    1.0100868   0.98524855    9451.9763   0.73127564 
   12000   -4.9266462    1.4850992   -3.4415471    0.9523678   0.99020938    9522.3427    0.7258718 
   13000   -4.9576694    1.5064477   -3.4512217   0.92637615    1.0044438    9477.8939   0.72927594 
   14000   -4.9456673    1.5000165   -3.4456508    1.0664442    1.0001557    9455.5052   0.73100272 
   15000   -4.9272935    1.5136009   -3.4136926    0.9842352    1.0092133    9509.2827    0.7268687 
   16000   -4.9515448    1.4664094   -3.4851354    1.0499593    0.9777477    9445.9871    0.7317393 
   17000   -4.9229628    1.4764209    -3.446542    1.0158517     0.984423    9521.9088   0.72590488 
   18000   -4.9369473    1.5073712   -3.4295762   0.93746476    1.0050595    9501.4895   0.72746489 
   19000   -4.9484861    1.5045526   -3.4439335    1.0735945    1.0031802    9451.4577   0.73131576 
   20000   -4.9630615    1.5126351   -3.4504263    1.0379599    1.0085693    9432.3493   0.73279729 
   21000   -4.9330955    1.4935317   -3.4395638    1.0338786   0.99583187    9482.2678   0.72893955 
   22000   -4.9450439    1.4865783   -3.4584657   0.94309766   0.99119559    9513.7606   0.72652659 
   23000   -4.9585641    1.4854872   -3.4730769    1.0871635   0.99046809    9428.9879   0.73305853 
   24000   -4.9131706    1.4942349   -3.4189356   0.98843902   0.99630076     9556.617   0.72326849 
   25000   -4.9529596     1.493079   -3.4598806    1.0568766   0.99553003    9440.3646   0.73217511 
   26000   -4.9576122    1.5139658   -3.4436464   0.97915715    1.0094565    9489.0507   0.72841849 
   27000   -4.9238281    1.4962787   -3.4275494    1.0005896   0.99766348    9528.7083   0.72538688 
   28000   -4.9605808    1.4980235   -3.4625573    1.0428222   0.99882684    9430.8073    0.7329171 
   29000   -4.9474113    1.5009612   -3.4464501    1.0963517    1.0007856    9468.5854   0.72999289 
   30000   -4.9384383    1.4921911   -3.4462471    1.0204584   0.99493804    9496.1549   0.72787355 
   31000   -4.9741346    1.5190187   -3.4551159    1.0691918    1.0128256    9415.3112   0.73412337 
   32000   -4.9402582    1.5024439   -3.4378144    1.0109223    1.0017742    9489.9506   0.72834942 
   33000   -4.9597371    1.5073438   -3.4523933    1.0068884    1.0050412    9440.1532    0.7321915 
   34000    -4.918635    1.5028147   -3.4158203   0.88858451    1.0020215     9561.089   0.72293021 
   35000   -4.9754133    1.4898436   -3.4855698    1.0439877   0.99337277    9413.4674   0.73426716 
   36000   -4.9407928    1.5086485   -3.4321443   0.94054194    1.0059112    9511.5257    0.7266973 
   37000   -4.9416601    1.5086216   -3.4330384    1.0589026    1.0058933    9489.0409   0.72841924 
   38000   -4.9534091    1.4972281    -3.456181    1.0768978   0.99829647    9452.8673   0.73120671 
   39000   -4.9255076    1.4952946   -3.4302131    1.0031269   0.99700729    9536.1392   0.72482163 
   40000   -4.9679423    1.5087628   -3.4591795   0.97048757    1.0059874     9422.484   0.73356453 
   41000    -4.945771    1.4959462   -3.4498248   0.99749489    0.9974418    9482.8368   0.72889581 
   42000   -4.9481297    1.5058009   -3.4423289   0.85254542    1.0040125    9523.2174   0.72580513 
   43000   -4.9670436    1.5003942   -3.4666495   0.96279798    1.0004075    9446.4868   0.73170059 
   44000   -4.9213263    1.4901117   -3.4312146    1.0099446   0.99355155     9511.574   0.72669361 
   45000   -4.9547609    1.5126149    -3.442146   0.97835083    1.0085558    9452.1374   0.73126317 
   46000   -4.9651986    1.5054721   -3.4597264     1.052064    1.0037933    9422.6143   0.73355438 
   47000   -4.9411447    1.5070408   -3.4341038    0.9752424    1.0048393    9513.3416   0.72655859 
   48000   -4.9366174    1.4939525   -3.4426648   0.96404992   0.99611248    9491.3892   0.72823902 
   49000   -4.9524967    1.4832841   -3.4692127   0.93670493   0.98899912    9499.5758   0.72761144 
   50000   -4.9553672    1.4772298   -3.4781374   0.92445075   0.98496234    9472.9286   0.72965819 
Loop time of 338.842 on 2 procs for 50000 steps with 6912 atoms

Performance: 63746.508 tau/day, 147.561 timesteps/s
99.1% CPU use with 2 MPI tasks x no OpenMP threads

MPI task timing breakdown:
Section |  min time  |  avg time  |  max time  |%varavg| %total
---------------------------------------------------------------
Pair    | 273.16     | 281.16     | 289.16     |  47.7 | 82.98
Neigh   | 29.13      | 29.486     | 29.842     |   6.6 |  8.70
Comm    | 9.7801     | 18.131     | 26.482     | 196.1 |  5.35
Output  | 0.20319    | 0.20351    | 0.20382    |   0.1 |  0.06
Modify  | 9.0681     | 9.0748     | 9.0815     |   0.2 |  2.68
Other   |            | 0.7871     |            |       |  0.23

Nlocal:    3456 ave 3483 max 3429 min
Histogram: 1 0 0 0 0 0 0 0 0 1
Nghost:    7397.5 ave 7398 max 7397 min
Histogram: 1 0 0 0 0 0 0 0 0 1
Neighs:    288149 ave 298298 max 278000 min
Histogram: 1 0 0 0 0 0 0 0 0 1

Total # of neighbors = 576298
Ave neighs/atom = 83.3764
Neighbor list builds = 2500
Dangerous builds not checked
unfix   intnpt
undump  id


#Using Nvt to calculate the rdf

fix         intnvt all nvt temp ${temp} ${temp} ${tdamp}
fix         intnvt all nvt temp 1 ${temp} ${tdamp}
fix         intnvt all nvt temp 1 1 ${tdamp}
fix         intnvt all nvt temp 1 1 1
compute     rdfnvt all rdf 100 1 1 1 2 2 2
fix         rdfnvt all ave/time ${Nevery} ${Nrepeat} ${Nfreq} c_rdfnvt[*] file systemnvt.rdf.${eps} mode vector ave window 2
fix         rdfnvt all ave/time 1000 ${Nrepeat} ${Nfreq} c_rdfnvt[*] file systemnvt.rdf.${eps} mode vector ave window 2
fix         rdfnvt all ave/time 1000 100 ${Nfreq} c_rdfnvt[*] file systemnvt.rdf.${eps} mode vector ave window 2
fix         rdfnvt all ave/time 1000 100 100000 c_rdfnvt[*] file systemnvt.rdf.${eps} mode vector ave window 2
fix         rdfnvt all ave/time 1000 100 100000 c_rdfnvt[*] file systemnvt.rdf.1.5 mode vector ave window 2
dump        idnvt all atom 1000 out.dump.nvt.${eps}.lammpstrj
dump        idnvt all atom 1000 out.dump.nvt.1.5.lammpstrj
thermo      ${nthermo}
thermo      1000
thermo_style custom step pe ke etotal press temp vol density
restart     100000 restartnvt1.data restartnvt2.data
run         200000
Neighbor list info ...
  update every 20 steps, delay 0 steps, check no
  max neighbors/atom: 2000, page size: 100000
  master list distance cutoff = 3.8
  ghost atom cutoff = 3.8
  binsize = 1.9, bins = 12 12 12
  2 neighbor lists, perpetual/occasional/extra = 1 1 0
  (1) pair lj/cut, perpetual
      attributes: half, newton on
      pair build: half/bin/atomonly/newton
      stencil: half/bin/3d/newton
      bin: standard
  (2) compute rdf, occasional, copy from (1)
      attributes: half, newton on
      pair build: copy
      stencil: none
      bin: none
Per MPI rank memory allocation (min/avg/max) = 4.925 | 5.116 | 5.307 Mbytes
Step PotEng KinEng TotEng Press Temp Volume Density 
[...]
   65000   -8.3562883    1.4721735   -6.8841148    1.0520797     0.981591    8983.3756   0.76942124 
   66000   -8.3629673    1.4934752   -6.8694921   0.97656644   0.99579423    8983.3756   0.76942124 
   67000   -8.3642884    1.5053884      -6.8589    1.0971866    1.0037375    8983.3756   0.76942124 
   68000   -8.3678859    1.5219093   -6.8459766   0.91107529     1.014753    8983.3756   0.76942124 
   69000   -8.3676159     1.503331   -6.8642849   0.93063361    1.0023657    8983.3756   0.76942124 
   70000   -8.3448569    1.4970236   -6.8478333    1.1615848   0.99816017    8983.3756   0.76942124 
   71000   -8.3681867    1.5120541   -6.8561326    0.9826221    1.0081819    8983.3756   0.76942124 
   72000   -8.3672274    1.5013835   -6.8658439    1.0369308    1.0010671    8983.3756   0.76942124 
   73000    -8.390519    1.4768678   -6.9136513   0.88457422   0.98472098    8983.3756   0.76942124 
   74000   -8.3740515    1.5154406    -6.858611    1.0210174    1.0104399    8983.3756   0.76942124 
   75000    -8.372799    1.4895228   -6.8832762    1.0838889   0.99315889    8983.3756   0.76942124 
   76000   -8.3744085     1.501848   -6.8725605   0.90413926    1.0013769    8983.3756   0.76942124 
   77000   -8.3759333    1.4838057   -6.8921275    1.0115235   0.98934695    8983.3756   0.76942124 
   78000   -8.3706021    1.4728025   -6.8977996    1.0404015    0.9820104    8983.3756   0.76942124 
   79000   -8.3800725     1.493168   -6.8869044    1.0199311   0.99558939    8983.3756   0.76942124 
   80000   -8.3716854    1.4978616   -6.8738238    1.0552826   0.99871887    8983.3756   0.76942124 
   81000   -8.3694409    1.4997474   -6.8696935    1.0947706   0.99997629    8983.3756   0.76942124 
   82000   -8.3843905    1.4931384   -6.8912521    1.0085954   0.99556964    8983.3756   0.76942124 
   83000   -8.3653898    1.4945806   -6.8708092   0.99212167   0.99653122    8983.3756   0.76942124 
   84000    -8.348949    1.5034041   -6.8455449    1.1085382    1.0024144    8983.3756   0.76942124 
   85000   -8.3716373    1.5126466   -6.8589907    1.0432942     1.008577    8983.3756   0.76942124 
   86000   -8.3590512     1.505914   -6.8531373    1.0244182    1.0040879    8983.3756   0.76942124 
   87000   -8.3613409    1.5281387   -6.8332022    1.0829913    1.0189065    8983.3756   0.76942124 
   88000   -8.3453567    1.5212568   -6.8240999     1.131414     1.014318    8983.3756   0.76942124 
   89000   -8.3578659    1.4953737   -6.8624922    1.0888179   0.99706008    8983.3756   0.76942124 
   90000   -8.3674192      1.49987   -6.8675492     1.053069     1.000058    8983.3756   0.76942124 
   91000   -8.3579129    1.4962507   -6.8616623    1.1338124   0.99764479    8983.3756   0.76942124 
   92000   -8.3670952    1.5197899   -6.8473052    1.0648504    1.0133399    8983.3756   0.76942124 
   93000    -8.373435    1.4849271   -6.8885078   0.99244281   0.99009467    8983.3756   0.76942124 
   94000   -8.3672414    1.4766224    -6.890619    1.0136526   0.98455738    8983.3756   0.76942124 
   95000   -8.3708825    1.4892069   -6.8816756    1.0371697   0.99294823    8983.3756   0.76942124 
   96000   -8.4070084    1.5055795   -6.9014289   0.86644552    1.0038649    8983.3756   0.76942124 
   97000   -8.3782093     1.464768   -6.9134413   0.99931398   0.97665327    8983.3756   0.76942124 
   98000   -8.3935924    1.4892888   -6.9043037    1.1003506   0.99300284    8983.3756   0.76942124 
   99000   -8.4239264    1.5237369   -6.9001895   0.82986833    1.0159716    8983.3756   0.76942124 
  100000   -8.3717094    1.5299792   -6.8417302    1.1492036    1.0201338    8983.3756   0.76942124 
  101000   -8.3829767    1.5145393   -6.8684374    1.0939615     1.009839    8983.3756   0.76942124 
  102000   -8.3879901    1.5012707   -6.8867194   0.97492742     1.000992    8983.3756   0.76942124 
  103000   -8.4276525    1.4732004   -6.9544521   0.96453224   0.98227574    8983.3756   0.76942124 
  104000   -8.4031454    1.4744385   -6.9287069     1.115264    0.9831012    8983.3756   0.76942124 
  105000   -8.4002365    1.4859062   -6.9143303   0.97904187   0.99074744    8983.3756   0.76942124 
  106000   -8.3921615    1.4832042   -6.9089573    1.1286943   0.98894588    8983.3756   0.76942124 
  107000   -8.3933118    1.4750638    -6.918248     0.987951   0.98351819    8983.3756   0.76942124 
  108000   -8.3999993    1.4828403    -6.917159    0.9406365   0.98870325    8983.3756   0.76942124 
  109000   -8.4204456    1.5030948   -6.9173509    0.9062105    1.0022082    8983.3756   0.76942124 
  110000   -8.3986629    1.4987554   -6.8999075    1.0557992   0.99931486    8983.3756   0.76942124 
  111000   -8.4256955    1.5054547   -6.9202408   0.89981317    1.0037817    8983.3756   0.76942124 
  112000   -8.4120643    1.4829028   -6.9291615   0.95535117   0.98874491    8983.3756   0.76942124 
  113000   -8.4159131    1.4965252   -6.9193878   0.92843964   0.99782784    8983.3756   0.76942124 
  114000   -8.3930022    1.5218537   -6.8711485    1.1732988    1.0147159    8983.3756   0.76942124 
  115000   -8.4057654    1.5234345   -6.8823309    1.0408028      1.01577    8983.3756   0.76942124 
  116000   -8.3954618    1.5007278   -6.8947339    1.1235243      1.00063    8983.3756   0.76942124 
  117000   -8.4037661    1.5055597   -6.8982064    1.1082112    1.0038517    8983.3756   0.76942124 
  118000   -8.4135718    1.5032401   -6.9103316    1.0438177    1.0023051    8983.3756   0.76942124 
  119000   -8.4113152    1.4879377   -6.9233775   0.95489536   0.99210199    8983.3756   0.76942124 
  120000    -8.413621    1.5041319   -6.9094891   0.94815071    1.0028997    8983.3756   0.76942124 
  121000   -8.4095133    1.4973648   -6.9121485    1.0577776   0.99838766    8983.3756   0.76942124 
  122000   -8.4132634    1.5388058   -6.8744576    1.0710309     1.026019    8983.3756   0.76942124 
  123000   -8.4194743    1.5181169   -6.9013574    1.0526426    1.0122244    8983.3756   0.76942124 
  124000   -8.3979161     1.501248   -6.8966681    1.0010835    1.0009768    8983.3756   0.76942124 
  125000   -8.4327493    1.5098426   -6.9229066   0.86483351    1.0067074    8983.3756   0.76942124 
  126000   -8.4206887    1.4906579   -6.9300307   0.94784106   0.99391576    8983.3756   0.76942124 
  127000   -8.4354485    1.5056814   -6.9297672   0.96995955    1.0039328    8983.3756   0.76942124 
  128000   -8.4234895    1.4808443   -6.9426452   0.96601404   0.98737235    8983.3756   0.76942124 
  129000   -8.4283262    1.5047356   -6.9235907    1.0239389    1.0033022    8983.3756   0.76942124 
  130000   -8.4249823    1.5118389   -6.9131434    1.0659191    1.0080384    8983.3756   0.76942124 
  131000   -8.4193851    1.5069611   -6.9124241    1.0420489    1.0047861    8983.3756   0.76942124 
  132000   -8.4031977    1.4952966   -6.9079011    1.0526735   0.99700864    8983.3756   0.76942124 
  133000   -8.4156314     1.516128   -6.8995034    1.0304878    1.0108982    8983.3756   0.76942124 
  134000   -8.4006039    1.5244355   -6.8761684    1.2361261    1.0164374    8983.3756   0.76942124 
  135000   -8.4121409    1.5227729    -6.889368    1.1148944    1.0153289    8983.3756   0.76942124 
  136000   -8.4145875    1.5078666    -6.906721   0.91031199    1.0053898    8983.3756   0.76942124 
  137000   -8.4187041    1.4988254   -6.9198787    1.0275685    0.9993615    8983.3756   0.76942124 
  138000   -8.4298227     1.504162   -6.9256607    1.0153913    1.0029198    8983.3756   0.76942124 
  139000   -8.4286599    1.4957839    -6.932876    1.0496047   0.99733357    8983.3756   0.76942124 
  140000   -8.4333299    1.5072442   -6.9260857   0.93467189    1.0049749    8983.3756   0.76942124 
  141000   -8.4133277    1.4920544   -6.9212733   0.97013098   0.99484686    8983.3756   0.76942124 
  142000   -8.4031177    1.5088866   -6.8942311    1.0540955    1.0060699    8983.3756   0.76942124 
  143000   -8.4266932    1.5319934   -6.8946998    1.0940105    1.0214767    8983.3756   0.76942124 
  144000   -8.4266354    1.5290729   -6.8975625    1.0971744    1.0195294    8983.3756   0.76942124 
  145000   -8.4180726    1.4815076    -6.936565   0.96029021   0.98781463    8983.3756   0.76942124 
  146000   -8.4256084    1.4842513   -6.9413571    1.1429438   0.98964402    8983.3756   0.76942124 
  147000   -8.4209208    1.4984231   -6.9224978    1.0617983   0.99909326    8983.3756   0.76942124 
  148000    -8.408275     1.500337    -6.907938    1.1008229    1.0003694    8983.3756   0.76942124 
  149000   -8.4247407    1.5228852   -6.9018555    0.9694604    1.0154037    8983.3756   0.76942124 
  150000   -8.4261683    1.5311928   -6.8949755    1.0699295    1.0209429    8983.3756   0.76942124 
  151000   -8.4057828    1.5180331   -6.8877498    1.1613271    1.0121685    8983.3756   0.76942124 
  152000   -8.4302174    1.5070628   -6.9231546   0.97497009    1.0048539    8983.3756   0.76942124 
  153000   -8.4101762    1.4760089   -6.9341673    1.0320036   0.98414832    8983.3756   0.76942124 
  154000    -8.427334    1.4856229   -6.9417111   0.96430015   0.99055858    8983.3756   0.76942124 
  155000   -8.4201171    1.4817446   -6.9383724    1.0383366   0.98797268    8983.3756   0.76942124 
  156000   -8.4286214    1.4979922   -6.9306292    1.0225451   0.99880597    8983.3756   0.76942124 
  157000    -8.419627    1.5101064   -6.9095207    1.0998833    1.0068832    8983.3756   0.76942124 
  158000   -8.4330516    1.5377048   -6.8953468    1.1159962    1.0252849    8983.3756   0.76942124 
  159000   -8.4092184    1.5169589   -6.8922595    1.1967139    1.0114523    8983.3756   0.76942124 
  160000   -8.4264677     1.490495   -6.9359726    1.0182251   0.99380714    8983.3756   0.76942124 
  161000   -8.4419614    1.5019895   -6.9399719    1.0325425    1.0014712    8983.3756   0.76942124 
  162000   -8.4352673    1.4899722   -6.9452951   0.95178483   0.99345851    8983.3756   0.76942124 
  163000   -8.4369032    1.4887954   -6.9481078   0.93735277   0.99267388    8983.3756   0.76942124 
  164000   -8.4391224    1.4792352   -6.9598872   0.99889278   0.98629946    8983.3756   0.76942124 
  165000   -8.4243651    1.4923947   -6.9319704    1.1138616   0.99507376    8983.3756   0.76942124 
  166000   -8.4249297    1.5109543   -6.9139754   0.98426703    1.0074486    8983.3756   0.76942124 
  167000   -8.4168294    1.4899384   -6.9268911    1.0688407   0.99343596    8983.3756   0.76942124 
  168000   -8.4311204    1.5247899   -6.9063305   0.94543705    1.0166737    8983.3756   0.76942124 
  169000   -8.4262451     1.518595   -6.9076501    1.1611082    1.0125431    8983.3756   0.76942124 
  170000   -8.4283271    1.5198707   -6.9084564   0.94908266    1.0133937    8983.3756   0.76942124 
  171000   -8.4113312    1.5174777   -6.8938536    1.1477689    1.0117982    8983.3756   0.76942124 
  172000   -8.4348365    1.5093077   -6.9255287   0.99643072    1.0063508    8983.3756   0.76942124 
  173000   -8.4360862    1.5089334   -6.9271529    1.0255039    1.0061011    8983.3756   0.76942124 
  174000   -8.4339795    1.5047244   -6.9292551   0.98236318    1.0032948    8983.3756   0.76942124 
  175000   -8.4511611    1.4932033   -6.9579578   0.83970321   0.99561289    8983.3756   0.76942124 
  176000   -8.4363402    1.4828571   -6.9534831    1.0870567   0.98871446    8983.3756   0.76942124 
  177000   -8.4060441    1.5072131    -6.898831     1.086645    1.0049541    8983.3756   0.76942124 
  178000   -8.4163421    1.5123329   -6.9040091    1.0057903    1.0083678    8983.3756   0.76942124 
  179000   -8.4188186    1.5034466    -6.915372   0.99302851    1.0024427    8983.3756   0.76942124 
  180000   -8.4274719    1.5073478   -6.9201241    1.0378194     1.005044    8983.3756   0.76942124 
  181000   -8.4204091    1.5094392   -6.9109699   0.96841333    1.0064384    8983.3756   0.76942124 
  182000   -8.4166706    1.5088638   -6.9078068   0.99605211    1.0060548    8983.3756   0.76942124 
  183000    -8.405246    1.5234083   -6.8818377    1.0568884    1.0157525    8983.3756   0.76942124 
  184000   -8.4083129     1.503654   -6.9046589    1.0639851     1.002581    8983.3756   0.76942124 
  185000   -8.4262922    1.5106859   -6.9156064    1.1152193    1.0072696    8983.3756   0.76942124 
  186000   -8.4242001    1.4899548   -6.9342454    1.0023224    0.9934469    8983.3756   0.76942124 
  187000   -8.4436774    1.4747648   -6.9689126   0.85517635   0.98331879    8983.3756   0.76942124 
  188000   -8.4398256    1.5090774   -6.9307482    1.0069198    1.0061972    8983.3756   0.76942124 
  189000   -8.4387537    1.5039266   -6.9348271   0.95013416    1.0027628    8983.3756   0.76942124 
  190000    -8.426209    1.4824672   -6.9437418    1.0200552   0.98845448    8983.3756   0.76942124 
  191000   -8.4470634    1.4829892   -6.9640743    1.0243038    0.9888025    8983.3756   0.76942124 
  192000   -8.4358175     1.478898   -6.9569195    1.0371204   0.98607467    8983.3756   0.76942124 
  193000   -8.4349967    1.4889422   -6.9460546   0.95090257   0.99277174    8983.3756   0.76942124 
  194000   -8.4448511    1.5041305   -6.9407206    1.0298749    1.0028988    8983.3756   0.76942124 
  195000   -8.4365079    1.5010292   -6.9354787     1.090059    1.0008309    8983.3756   0.76942124 
  196000    -8.462139    1.5194566   -6.9426824   0.95629559    1.0131176    8983.3756   0.76942124 
  197000    -8.460153    1.5029447   -6.9572083   0.98649996    1.0021081    8983.3756   0.76942124 
  198000   -8.4636831    1.4938627   -6.9698204   0.95807393   0.99605258    8983.3756   0.76942124 
  199000   -8.4777526    1.5100927   -6.9676599   0.89653666    1.0068741    8983.3756   0.76942124 
  200000   -8.4699591    1.4929241    -6.977035    0.9722236   0.99542675    8983.3756   0.76942124 
  201000   -8.4647707    1.4859536   -6.9788172   0.97197403   0.99077907    8983.3756   0.76942124 
  202000   -8.4876466    1.5093625   -6.9782841   0.98655293    1.0063872    8983.3756   0.76942124 
  203000   -8.4698645    1.5043313   -6.9655332    1.0036166    1.0030326    8983.3756   0.76942124 
  204000   -8.4849442    1.5181308   -6.9668135    1.1002462    1.0122336    8983.3756   0.76942124 
  205000    -8.492057    1.5146408   -6.9774162    1.0518428    1.0099067    8983.3756   0.76942124 
  206000   -8.4620258     1.500397   -6.9616288    1.0998088    1.0004094    8983.3756   0.76942124 
  207000   -8.4911822    1.5394572    -6.951725   0.98032206    1.0264533    8983.3756   0.76942124 
  208000   -8.4803611    1.5258009   -6.9545602    1.0704685    1.0173478    8983.3756   0.76942124 
  209000   -8.4744226    1.4954716   -6.9789511    1.1150335    0.9971253    8983.3756   0.76942124 
  210000   -8.4921632    1.5069666   -6.9851966   0.97629875    1.0047898    8983.3756   0.76942124 
  211000    -8.495243    1.5203514   -6.9748916   0.90682905    1.0137143    8983.3756   0.76942124 
  212000   -8.4907642    1.5133017   -6.9774624    0.8932922    1.0090138    8983.3756   0.76942124 
  213000   -8.4759585    1.5097808   -6.9661777    0.8995999    1.0066662    8983.3756   0.76942124 
  214000   -8.4650432    1.5240906   -6.9409526    1.0172769    1.0162074    8983.3756   0.76942124 
  215000   -8.4696366     1.526038   -6.9435986   0.99521034    1.0175059    8983.3756   0.76942124 
  216000   -8.4835163    1.5014657   -6.9820505   0.97402698     1.001122    8983.3756   0.76942124 
  217000   -8.4958478    1.4935748   -7.0022731   0.95701258   0.99586058    8983.3756   0.76942124 
  218000   -8.4975518    1.4957811   -7.0017707    1.0452529   0.99733167    8983.3756   0.76942124 
  219000   -8.4875861    1.4800911    -7.007495    1.0854579   0.98687019    8983.3756   0.76942124 
  220000    -8.504206     1.489232    -7.014974   0.97610096   0.99296498    8983.3756   0.76942124 
  221000   -8.4937256    1.4843763   -7.0093493   0.95922266    0.9897274    8983.3756   0.76942124 
  222000   -8.4943226    1.4949056    -6.999417   0.93529703   0.99674791    8983.3756   0.76942124 
  223000   -8.4817627    1.4981089   -6.9836538    1.0935048    0.9988838    8983.3756   0.76942124 
  224000   -8.4724362    1.4986633   -6.9737728     1.006941   0.99925345    8983.3756   0.76942124 
  225000     -8.49192    1.5070812   -6.9848388   0.96760901    1.0048662    8983.3756   0.76942124 
  226000   -8.4716849    1.4919558   -6.9797291    1.0508094   0.99478114    8983.3756   0.76942124 
  227000   -8.4964352     1.495012   -7.0014232   0.98360758   0.99681887    8983.3756   0.76942124 
  228000   -8.5039376    1.4973773   -7.0065603   0.97855585   0.99839601    8983.3756   0.76942124 
  229000   -8.4977073    1.4696322   -7.0280752   0.93290318   0.97989655    8983.3756   0.76942124 
  230000   -8.4760064    1.4715622   -7.0044442    0.8930045   0.98118339    8983.3756   0.76942124 
  231000   -8.4924487    1.4921919   -7.0002568   0.92826279   0.99493854    8983.3756   0.76942124 
  232000   -8.4912205    1.4922255   -6.9989949   0.89303025   0.99496098    8983.3756   0.76942124 
  233000   -8.4948001     1.485814   -7.0089861    1.0226663   0.99068602    8983.3756   0.76942124 
  234000    -8.500493    1.4852536   -7.0152394   0.94557114   0.99031237    8983.3756   0.76942124 
  235000   -8.4942213     1.491466   -7.0027553    1.0224848   0.99445456    8983.3756   0.76942124 
  236000   -8.5007869    1.4989237   -7.0018632   0.92696352   0.99942705    8983.3756   0.76942124 
  237000   -8.4809851    1.5044045   -6.9765807   0.97551038    1.0030814    8983.3756   0.76942124 
  238000   -8.4722209    1.5232559    -6.948965    1.0546875    1.0156509    8983.3756   0.76942124 
  239000   -8.4619451    1.4958325   -6.9661125    1.0524667   0.99736599    8983.3756   0.76942124 
  240000   -8.4670706    1.4925622   -6.9745085    1.0727035   0.99518541    8983.3756   0.76942124 
  241000   -8.4569739    1.4874423   -6.9695316    1.1003031   0.99177167    8983.3756   0.76942124 
  242000   -8.4865587    1.5179793   -6.9685794    1.0357623    1.0121326    8983.3756   0.76942124 
  243000    -8.483999    1.4847007   -6.9992983    1.0380944   0.98994369    8983.3756   0.76942124 
  244000   -8.4777236    1.4849895   -6.9927341    0.9853194   0.99013625    8983.3756   0.76942124 
  245000   -8.4914695    1.5071279   -6.9843417   0.93673164    1.0048973    8983.3756   0.76942124 
  246000    -8.479429    1.4884549   -6.9909741    1.0016061   0.99244684    8983.3756   0.76942124 
  247000   -8.4836428    1.4888975   -6.9947453   0.92501508   0.99274197    8983.3756   0.76942124 
  248000   -8.4776116    1.4978863   -6.9797254    1.0520995   0.99873533    8983.3756   0.76942124 
  249000   -8.4705257    1.5072173   -6.9633084    1.0551128    1.0049569    8983.3756   0.76942124 
  250000   -8.4784319    1.5293233   -6.9491087    1.0731993    1.0196964    8983.3756   0.76942124 
Loop time of 1257.12 on 2 procs for 200000 steps with 6912 atoms

Performance: 68728.354 tau/day, 159.093 timesteps/s
99.5% CPU use with 2 MPI tasks x no OpenMP threads

MPI task timing breakdown:
Section |  min time  |  avg time  |  max time  |%varavg| %total
---------------------------------------------------------------
Pair    | 892.35     | 992.5      | 1092.6     | 317.9 | 78.95
Neigh   | 109.64     | 117.78     | 125.91     |  75.0 |  9.37
Comm    | 20.063     | 128.67     | 237.27     | 957.4 | 10.23
Output  | 0.66175    | 0.6627     | 0.66365    |   0.1 |  0.05
Modify  | 14.275     | 14.526     | 14.778     |   6.6 |  1.16
Other   |            | 2.996      |            |       |  0.24

Nlocal:    3456 ave 3633 max 3279 min
Histogram: 1 0 0 0 0 0 0 0 0 1
Nghost:    7399.5 ave 7517 max 7282 min
Histogram: 1 0 0 0 0 0 0 0 0 1
Neighs:    309261 ave 344498 max 274024 min
Histogram: 1 0 0 0 0 0 0 0 0 1

Total # of neighbors = 618522
Ave neighs/atom = 89.4852
Neighbor list builds = 10000
Dangerous builds not checked
unfix       intnvt
uncompute   rdfnvt
unfix       rdfnvt
undump      idnvt

next      a
jump      in.melt epsloop
Total wall time: 4:58:40
