thermo		${nthermo}
thermo		1000
thermo_style custom step pe ke etotal press temp vol density
dump		id all atom 1000 out.dump.npt.${temp}.lammpstrj
dump		id all atom 1000 out.dump.npt.0.9.lammpstrj
restart 100000 restartnvt1.data restartnvt2.data

fix 		intnpt all npt temp ${temp} ${temp} ${tdamp} iso ${pext} ${pext} ${pdamp}
fix 		intnpt all npt temp 0.9 ${temp} ${tdamp} iso ${pext} ${pext} ${pdamp}
fix 		intnpt all npt temp 0.9 0.9 ${tdamp} iso ${pext} ${pext} ${pdamp}
fix 		intnpt all npt temp 0.9 0.9 1 iso ${pext} ${pext} ${pdamp}
fix 		intnpt all npt temp 0.9 0.9 1 iso 1 ${pext} ${pdamp}
fix 		intnpt all npt temp 0.9 0.9 1 iso 1 1 ${pdamp}
fix 		intnpt all npt temp 0.9 0.9 1 iso 1 1 10
run		  100000
Neighbor list info ...
  update every 20 steps, delay 0 steps, check no
  max neighbors/atom: 2000, page size: 100000
  master list distance cutoff = 3.8
  ghost atom cutoff = 3.8
  binsize = 1.9, bins = 9 9 9
  1 neighbor lists, perpetual/occasional/extra = 1 0 0
  (1) pair lj/cut, perpetual
      attributes: half, newton on
      pair build: half/bin/atomonly/newton
      stencil: half/bin/3d/newton
      bin: standard
Per MPI rank memory allocation (min/avg/max) = 4.75 | 4.75 | 4.75 Mbytes
Step PotEng KinEng TotEng Press Temp Volume Density 
 3000000   -6.7804649    1.2285344   -5.5519306   0.97804731   0.81922771    4242.7818   0.94277768 
 3001000   -6.4939661    1.3225241    -5.171442   0.99720932    0.8819032    4376.3962   0.91399402 
 3002000   -6.3080133    1.3519032   -4.9561101   0.99984817   0.90149417    4469.3896    0.8949768 
 3003000   -6.0228493     1.285855   -4.7369943    1.1315117   0.85745106    4606.5403   0.86833062 
 3004000   -5.6506252    1.3191121   -4.3315132    1.0396976   0.87962795    4841.2221   0.82623766 
 3005000   -5.5157444    1.3691179   -4.1466265   0.88565077   0.91297349    4950.5358   0.80799334 
 3006000   -5.6030183    1.3640981   -4.2389202    0.9680923   0.90962613    4885.5531   0.81874046 
 3007000     -5.55132    1.3524539    -4.198866   0.97902987   0.90186142    4916.5967    0.8135709 
 3008000   -5.5345741    1.3423341     -4.19224    1.0794162   0.89511316    4910.8614   0.81452105 
 3009000   -5.5546506     1.345362   -4.2092886    1.0404817   0.89713231    4903.9034   0.81567676 
 3010000   -5.5515397    1.3547707    -4.196769   0.89885316   0.90340634    4925.1492   0.81215814 
 3011000   -5.5947578    1.3424477   -4.2523101   0.93444975   0.89518894    4896.6441     0.816886 
 3012000   -5.5202956    1.3329355   -4.1873601    1.0005321   0.88884587     4928.424   0.81161848 
 3013000   -5.5940891    1.3266202   -4.2674688    1.0090191   0.88463466    4881.6589   0.81939359 
 3014000   -5.5221545    1.3326104   -4.1895441   0.97415095    0.8886291    4934.0957   0.81068553 
 3015000   -5.5761876    1.3639347   -4.2122529   0.97888025   0.90951717    4896.5275   0.81690545 
 3016000    -5.531514    1.3653847   -4.1661292   0.98537221    0.9104841    4928.7865   0.81155878 
 3017000   -5.5377194    1.3433138   -4.1944056   0.89210297   0.89576644    4939.9101   0.80973134 
 3018000   -5.5414522    1.3041957   -4.2372565    1.1240931   0.86968121    4897.9292   0.81667166 
 3019000   -5.5160479    1.3607648   -4.1552831    1.0328152    0.9074034    4937.5196   0.81012336 
 3020000    -5.567164    1.3300925   -4.2370715    1.0772044   0.88695006     4893.641   0.81738729 
 3021000   -5.5273848    1.3356185   -4.1917663   0.83537529   0.89063499    4945.4301   0.80882753 
 3022000   -5.5486968    1.3351583   -4.2135385   0.97102828   0.89032815    4914.5427   0.81391093 
 3023000   -5.5308758    1.3456688   -4.1852071   0.91387642   0.89733685    4939.9547   0.80972402 
 3024000   -5.5594586    1.3070603   -4.2523983    1.1332268   0.87159142    4885.4749   0.81875356 
 3025000    -5.519329    1.3497237   -4.1696053   0.80079919    0.9000408    4959.9374    0.8064618 
 3026000   -5.5770837    1.3497077    -4.227376   0.91404646   0.90003014    4905.9689   0.81533334 
 3027000   -5.5680174    1.3182966   -4.2497208   0.93187772   0.87908417    4905.7804   0.81536467 
 3028000   -5.5783359    1.3534227   -4.2249132   0.80396643   0.90250744    4921.4012   0.81277665 
 3029000   -5.5446916    1.3362642   -4.2084274    1.0273138   0.89106554    4908.4807   0.81491611 
 3030000   -5.5711304    1.3771945   -4.1939359    1.0438333   0.91835928     4897.934   0.81667086 
 3031000   -5.5737305    1.3794804   -4.1942501    1.0775926   0.91988355    4886.5402   0.81857507 
 3032000      -5.5598    1.3549516   -4.2048483    1.0704076   0.90352697    4895.7993   0.81702695 
 3033000   -5.5571949      1.36414   -4.1930549   0.90281747   0.90965406    4926.4257   0.81194769 
 3034000   -5.5704622    1.3318246   -4.2386375   0.97615468   0.88810512    4899.2688   0.81644837 
 3035000    -5.499706    1.3648038   -4.1349022   0.88883031    0.9100967    4963.4172   0.80589639 
 3036000   -5.5750071    1.3528924   -4.2221146   0.91670216   0.90215383    4907.1912   0.81513024 
 3037000    -5.573117    1.3325747   -4.2405422   0.77269777    0.8886053    4928.6068   0.81158837 
 3038000   -5.5668865    1.3472232   -4.2196632   0.84446622   0.89837343    4920.1167   0.81298885 
 3039000   -5.5618609    1.3305125   -4.2313484    1.0361521   0.88723014     4900.262   0.81628288 
 3040000   -5.5514851    1.3528645   -4.1986207    1.0212068   0.90213517    4909.8534   0.81468827 
 3041000    -5.555796    1.3617234   -4.1940726    1.0885872   0.90804264    4902.2456   0.81595259 
 3042000   -5.5521678    1.3534799   -4.1986878    1.0995291    0.9025456    4898.3864   0.81659544 
 3043000    -5.590946    1.3698688   -4.2210772    1.2251589   0.91347425    4858.5473   0.82329136 
 3044000   -5.5318367    1.3556921   -4.1761445    1.0977385   0.90402077    4909.5449   0.81473946 
 3045000   -5.5620025     1.354322   -4.2076805   0.98272075   0.90310712    4908.0144   0.81499354 
 3046000   -5.5980341    1.3426394   -4.2553946   0.77206175   0.89531679    4913.1389   0.81414347 
 3047000   -5.5664571    1.3171078   -4.2493493   0.93314815   0.87829146    4906.2987   0.81527853 
 3048000   -5.5369447    1.3209982   -4.2159465   0.99177344   0.88088571    4915.9537   0.81367732 
 3049000   -5.5546542    1.3691365   -4.1855177   0.98057026   0.91298591    4906.7701    0.8152002 
 3050000    -5.563499    1.3758669   -4.1876321    1.0623168   0.91747398    4899.5217   0.81640622 
 3051000   -5.5531085    1.3840194   -4.1690891   0.99364749    0.9229103    4912.1351   0.81430985 
 3052000    -5.550353     1.374558   -4.1757949    1.1509688   0.91660118    4894.7343   0.81720472 
 3053000   -5.5571629    1.3638993   -4.1932636   0.93877527   0.90949358    4913.8116   0.81403202 
 3054000   -5.5618489    1.3367011   -4.2251479   0.99465284   0.89135688    4903.6112   0.81572536 
 3055000   -5.5602535    1.3526849   -4.2075686   0.96814055   0.90201543     4909.408   0.81476219 
 3056000   -5.5320848    1.3532554   -4.1788293   0.98063469    0.9023959    4927.4222   0.81178349 
 3057000   -5.5872265    1.3293117   -4.2579148    1.0430415   0.88642938    4886.9785   0.81850166 
 3058000   -5.5473987     1.384144   -4.1632547   0.97262344    0.9229934    4920.9585   0.81284977 
 3059000   -5.5413826    1.3854523   -4.1559303    1.1130994   0.92386583    4911.0124     0.814496 
 3060000   -5.5621983     1.328281   -4.2339173    1.0166932   0.88574213    4902.7579   0.81586733 
 3061000   -5.5680309    1.3294301   -4.2386007   0.86241691   0.88650837    4919.0673   0.81316229 
 3062000   -5.5561164    1.3307745   -4.2253419    1.0573549   0.88740486    4899.8685   0.81634843 
 3063000   -5.5809049     1.373214   -4.2076909    1.0618232   0.91570492    4889.5743   0.81806713 
 3064000   -5.5265064    1.3589726   -4.1675339    1.0244066   0.90620827    4928.6305   0.81158448 
 3065000   -5.5815559    1.3042248   -4.2773311   0.99031906   0.86970064    4894.6184   0.81722407 
 3066000    -5.554216    1.3365001   -4.2177159   0.86857796   0.89122288    4929.1631   0.81149678 
 3067000   -5.5780054    1.3619963   -4.2160091   0.98592643   0.90822458    4898.6637   0.81654921 
 3068000   -5.5235446    1.3611599   -4.1623848   0.86284129   0.90766684    4948.0722   0.80839565 
 3069000   -5.5635534     1.348813   -4.2147404    1.0353874   0.89943356    4903.4405   0.81575376 
 3070000   -5.5253645    1.3286524   -4.1967121   0.97095266   0.88598975    4930.0778   0.81134622 
 3071000   -5.5954029    1.3199248   -4.2754781     1.015433   0.88016988    4880.9335   0.81951536 
 3072000   -5.5638006    1.3434343   -4.2203664   0.95157516   0.89584681     4910.573   0.81456889 
 3073000   -5.5357982    1.3635202    -4.172278   0.92415601   0.90924078    4931.2533   0.81115281 
 3074000   -5.5664927    1.3819755   -4.1845172   0.92303623   0.92154742     4912.054   0.81432329 
 3075000   -5.5455001    1.3516326   -4.1938675    1.0390362   0.90131375    4909.6009   0.81473017 
 3076000   -5.5179464     1.346438   -4.1715084    1.0663979    0.8978498    4926.1922   0.81198619 
 3077000    -5.570862    1.3604903   -4.2103717    0.9866703   0.90722035    4903.3285   0.81577239 
 3078000   -5.5255226    1.3359292   -4.1895933   0.81004402   0.89084221    4944.3216   0.80900886 
 3079000   -5.5737756    1.3344097   -4.2393659   0.99621649   0.88982896    4899.2612   0.81644964 
 3080000   -5.5475563    1.3563733    -4.191183   0.93666488   0.90447499     4919.624   0.81307027 
 3081000    -5.546649    1.3698021   -4.1768468    1.1692165   0.91342978    4899.9478   0.81633523 
 3082000   -5.5469797    1.3583664   -4.1886133    1.0475173   0.90580408    4908.7476    0.8148718 
 3083000   -5.5301551    1.3605505   -4.1696046    1.0243385   0.90726051    4921.9747   0.81268195 
 3084000   -5.5592223    1.3497494   -4.2094729    1.0758991   0.90005797     4893.664   0.81738346 
 3085000   -5.5377594    1.3347615    -4.202998    1.0361675   0.89006349    4914.9393   0.81384525 
 3086000    -5.572213    1.3255752   -4.2466378    1.0084261   0.88393781    4897.7976    0.8166936 
 3087000   -5.5315163    1.3587922   -4.1727241   0.89073181     0.906088    4940.8449   0.80957814 
 3088000   -5.5463336    1.3440713   -4.2022623    1.0693606   0.89627158     4906.166   0.81530059 
 3089000   -5.5674331    1.3504917   -4.2169413    1.0743722   0.90055297    4894.8138   0.81719145 
 3090000   -5.5340262    1.3393395   -4.1946868   0.92328523   0.89311625    4931.5155   0.81110969 
 3091000   -5.5650215     1.335252   -4.2297694    1.0853603   0.89039062    4890.7498    0.8178705 
 3092000    -5.550058    1.3736224   -4.1764356   0.97185307   0.91597728    4920.4355   0.81293618 
 3093000   -5.6021179    1.3393518   -4.2627661   0.90234284   0.89312447    4891.2128   0.81779308 
 3094000   -5.5116601    1.3271301     -4.18453    1.0829525   0.88497465    4926.4784   0.81193901 
 3095000   -5.5528322    1.3423681   -4.2104641    1.0297771   0.89513586    4904.3798   0.81559752 
 3096000   -5.5554316    1.3393002   -4.2161314    1.1261377   0.89309008    4891.0157   0.81782603 
 3097000   -5.5717876    1.3658062   -4.2059815   0.99156732   0.91076515    4903.0091   0.81582553 
 3098000   -5.5431716    1.3599508   -4.1832209    1.1093661   0.90686058    4905.0741   0.81548207 
 3099000   -5.5816617    1.3483336   -4.2333281    1.1726887   0.89911383    4869.0681   0.82151243 
 3100000   -5.5339965    1.3251024   -4.2088941     1.072112    0.8836225    4912.1546   0.81430661 
Loop time of 385.095 on 2 procs for 100000 steps with 4000 atoms

Performance: 112180.102 tau/day, 259.676 timesteps/s
98.5% CPU use with 2 MPI tasks x no OpenMP threads

MPI task timing breakdown:
Section |  min time  |  avg time  |  max time  |%varavg| %total
---------------------------------------------------------------
Pair    | 318.33     | 318.47     | 318.62     |   0.8 | 82.70
Neigh   | 39.474     | 39.515     | 39.556     |   0.7 | 10.26
Comm    | 16.168     | 16.349     | 16.53      |   4.5 |  4.25
Output  | 0.21071    | 0.21128    | 0.21185    |   0.1 |  0.05
Modify  | 9.5171     | 9.5211     | 9.525      |   0.1 |  2.47
Other   |            | 1.027      |            |       |  0.27

Nlocal:    2000 ave 2007 max 1993 min
Histogram: 1 0 0 0 0 0 0 0 0 1
Nghost:    5898.5 ave 5907 max 5890 min
Histogram: 1 0 0 0 0 0 0 0 0 1
Neighs:    185546 ave 186231 max 184860 min
Histogram: 1 0 0 0 0 0 0 0 0 1

Total # of neighbors = 371091
Ave neighs/atom = 92.7728
Neighbor list builds = 5000
Dangerous builds not checked
unfix   intnpt
undump  id

#Using Nvt to calculate the rdf and msd
compute   msd all msd average yes
compute   rdfnvt all rdf 100 1 1
fix       rdfnvt all ave/time ${Nevery} ${Nrepeat} ${Nfreq} c_rdfnvt[*] file systemnvt.rdf.${temp} mode vector
fix       rdfnvt all ave/time 1000 ${Nrepeat} ${Nfreq} c_rdfnvt[*] file systemnvt.rdf.${temp} mode vector
fix       rdfnvt all ave/time 1000 100 ${Nfreq} c_rdfnvt[*] file systemnvt.rdf.${temp} mode vector
fix       rdfnvt all ave/time 1000 100 100000 c_rdfnvt[*] file systemnvt.rdf.${temp} mode vector
fix       rdfnvt all ave/time 1000 100 100000 c_rdfnvt[*] file systemnvt.rdf.0.9 mode vector
log       log.lammps.nvt.${temp}
log       log.lammps.nvt.0.9
