thermo    ${nthermo}
thermo    1000
thermo_style custom step pe ke etotal press temp vol c_msd[4]
dump      idnvt all atom 1000 out.dump.nvt.${temp}.lammpstrj
dump      idnvt all atom 1000 out.dump.nvt.0.7.lammpstrj
restart   100000 restartnpt1.data restartnp2.data

fix       intnvt all nvt temp ${temp} ${temp} ${tdamp}
fix       intnvt all nvt temp 0.7 ${temp} ${tdamp}
fix       intnvt all nvt temp 0.7 0.7 ${tdamp}
fix       intnvt all nvt temp 0.7 0.7 1
run       400000
Neighbor list info ...
  update every 20 steps, delay 0 steps, check no
  max neighbors/atom: 2000, page size: 100000
  master list distance cutoff = 3.8
  ghost atom cutoff = 3.8
  binsize = 1.9, bins = 9 9 9
  2 neighbor lists, perpetual/occasional/extra = 1 1 0
  (1) pair lj/cut, perpetual
      attributes: half, newton on
      pair build: half/bin/atomonly/newton
      stencil: half/bin/3d/newton
      bin: standard
  (2) compute rdf, occasional, copy from (1)
      attributes: half, newton on
      pair build: copy
      stencil: none
      bin: none
Per MPI rank memory allocation (min/avg/max) = 5.126 | 5.126 | 5.126 Mbytes
Step PotEng KinEng TotEng Press Temp Volume c_msd[4] 
 2100000   -7.0866588    1.0707337   -6.0159251    1.0797704   0.71400097    4103.2521            0 
 2101000   -7.0883399    1.0531246   -6.0352152    1.0579636   0.70225866    4103.2521   0.01819919 
 2102000   -7.0997374    1.0417702   -6.0579671    1.0033397   0.69468715    4103.2521  0.018311555 
 2103000   -7.1033158    1.0579051   -6.0454107   0.96550681   0.70544642    4103.2521  0.018930591 
 2104000   -7.0874544    1.0334768   -6.0539776    1.0406293   0.68915679    4103.2521  0.019423562 
 2105000   -7.0593169    1.0811908   -5.9781262    1.2223283   0.72097408    4103.2521  0.023663175 
 2106000   -7.1039725    1.0561997   -6.0477727   0.97163176   0.70430922    4103.2521  0.020506559 
 2107000   -7.0939306    1.0419342   -6.0519964     1.006416   0.69479653    4103.2521   0.02172069 
 2108000     -7.12418    1.0565351   -6.0676449   0.85768913   0.70453289    4103.2521  0.018389759 
 2109000   -7.0956772    1.0532149   -6.0424622    1.0179092   0.70231887    4103.2521  0.017938318 
 2110000   -7.1130676    1.0809003   -6.0321673   0.94416153   0.72078038    4103.2521  0.018712027 
 2111000   -7.1038381    1.0570993   -6.0467388   0.98536781   0.70490908    4103.2521   0.01848474 
 2112000   -7.1103168    1.0380693   -6.0722475   0.93957269   0.69221923    4103.2521  0.017748583 
 2113000    -7.084105    1.0148795   -6.0692256    1.0445732   0.67675549    4103.2521  0.018686574 
 2114000    -7.112152    1.0558411   -6.0563109    0.9400363   0.70407008    4103.2521  0.019177525 
 2115000   -7.0920233    1.0539811   -6.0380422    1.0340687   0.70282979    4103.2521  0.018748994 
 2116000   -7.0743627     1.079785   -5.9945777     1.122711   0.72003668    4103.2521   0.01999812 
 2117000   -7.0922973    1.0534838   -6.0388135    1.0306897   0.70249819    4103.2521  0.021819794 
 2118000   -7.0745542    1.0265836   -6.0479706    1.1091458   0.68456022    4103.2521  0.025440727 
 2119000   -7.1066973    1.0466232   -6.0600741   0.94328917   0.69792326    4103.2521  0.022391194 
 2120000   -7.1092169    1.0402474   -6.0689695   0.93217469   0.69367169    4103.2521  0.024736768 
 2121000   -7.1071554    1.0372448   -6.0699106    0.9403545   0.69166944    4103.2521  0.021647079 
 2122000    -7.091184    1.0558407   -6.0353434    1.0390096    0.7040698    4103.2521  0.019199481 
 2123000   -7.0891826    1.0533999   -6.0357827    1.0338031   0.70244218    4103.2521  0.020328712 
 2124000   -7.0725175    1.0383627   -6.0341548    1.1318626   0.69241489    4103.2521  0.019979018 
 2125000   -7.1146436     1.033333   -6.0813106   0.90435819   0.68906094    4103.2521  0.023560375 
 2126000   -7.1213279    1.0510814   -6.0702465   0.87189641   0.70089616    4103.2521  0.018966686 
 2127000   -7.0900679    1.0300843   -6.0599836    1.0376305   0.68689459    4103.2521  0.019673826 
 2128000   -7.0746755    1.0690805   -6.0055949    1.1299639   0.71289859    4103.2521  0.020359632 
 2129000   -7.0777449    1.0557955   -6.0219494    1.0989184   0.70403967    4103.2521  0.022534532 
 2130000   -7.0921364    1.0421957   -6.0499407    1.0260777   0.69497087    4103.2521  0.021161398 
 2131000   -7.0964798    1.0344592   -6.0620206   0.98543657   0.68981189    4103.2521  0.019331834 
 2132000   -7.0987293    1.0448517   -6.0538776     1.000548   0.69674199    4103.2521  0.020897768 
 2133000   -7.1079111    1.0687121   -6.0391989   0.95538406   0.71265292    4103.2521  0.021774842 
 2134000    -7.092307    1.0727582   -6.0195489     1.040423   0.71535096    4103.2521  0.022986707 
 2135000   -7.0822451    1.0728809   -6.0093642    1.0928923   0.71543279    4103.2521  0.020343634 
 2136000   -7.0797596    1.0672976    -6.012462    1.1173243   0.71170963    4103.2521  0.021213536 
 2137000   -7.0963819    1.0507475   -6.0456344    1.0089848   0.70067351    4103.2521  0.022467939 
 2138000   -7.0882266    1.0374709   -6.0507557    1.0288258   0.69182024    4103.2521  0.021775981 
 2139000   -7.1023064    1.0521339   -6.0501725   0.98723439   0.70159798    4103.2521  0.020984791 
 2140000   -7.0765031    1.0420455   -6.0344575    1.1005629   0.69487075    4103.2521  0.021873327 
 2141000   -7.0981346    1.0648006   -6.0333339    1.0130158    0.7100446    4103.2521   0.02107981 
 2142000   -7.0764746    1.0434481   -6.0330265    1.1291413     0.695806    4103.2521   0.02321293 
 2143000   -7.1005225    1.0594032   -6.0411193   0.98809895   0.70644538    4103.2521  0.022173884 
 2144000   -7.0972114    1.0420932   -6.0551181    1.0040459   0.69490254    4103.2521  0.020816821 
 2145000   -7.1061004    1.0275635    -6.078537   0.96005085    0.6852136    4103.2521  0.021865196 
 2146000   -7.0874713    1.0527813     -6.03469    1.0631219   0.70202973    4103.2521  0.028356927 
 2147000   -7.0903432     1.053778   -6.0365653     1.035059   0.70269432    4103.2521  0.027142205 
 2148000   -7.0769485    1.0612142   -6.0157343    1.1141843   0.70765304    4103.2521  0.032682666 
 2149000   -7.0971074    1.0661119   -6.0309955    1.0097609   0.71091898    4103.2521  0.029442064 
 2150000   -7.0912458    1.0569173   -6.0343286    1.0356051   0.70478771    4103.2521  0.032443911 
 2151000    -7.093752    1.0357118   -6.0580402    1.0145602   0.69064722    4103.2521  0.036753568 
 2152000   -7.0897727    1.0390251   -6.0507476    1.0334969   0.69285663    4103.2521  0.029969521 
 2153000   -7.0993178    1.0613023   -6.0380155    1.0001468    0.7077118    4103.2521  0.032525313 
 2154000   -7.0815558    1.0554291   -6.0261268    1.0923461   0.70379533    4103.2521  0.038597889 
 2155000   -7.0933776    1.0915964   -6.0017812    1.0631809   0.72791292    4103.2521  0.048571841 
 2156000   -7.0949398    1.0401036   -6.0548362    1.0108468    0.6935758    4103.2521  0.033257171 
 2157000   -7.1030174    1.0509252   -6.0520922   0.96655324   0.70079201    4103.2521  0.032439543 
 2158000   -7.0875749    1.0540899    -6.033485    1.0731009   0.70290233    4103.2521  0.029212572 
 2159000   -7.0644551      1.05277   -6.0116851    1.1984966   0.70202214    4103.2521  0.025789437 
 2160000   -7.0766502    1.0566514   -6.0199988    1.1201724   0.70461039    4103.2521  0.029783431 
 2161000   -7.0977529    1.0691807   -6.0285722    1.0098804   0.71296538    4103.2521  0.028377763 
 2162000   -7.0951897    1.0605052   -6.0346845     1.027305   0.70718024    4103.2521  0.027064081 
 2163000   -7.1017815    1.0395265    -6.062255   0.98828323   0.69319097    4103.2521  0.025752463 
 2164000   -7.1128663    1.0490069   -6.0638594   0.93536476   0.69951278    4103.2521  0.030819372 
 2165000   -7.0825003    1.0430902   -6.0394101    1.0745435   0.69556738    4103.2521  0.028525058 
 2166000   -7.0853967    1.0495718   -6.0358249    1.0803376    0.6998895    4103.2521  0.025659571 
 2167000   -7.0870196     1.054726   -6.0322936    1.0463639    0.7033265    4103.2521  0.023731328 
 2168000   -7.0978621    1.0572534   -6.0406087    1.0130681   0.70501186    4103.2521  0.022270844 
 2169000   -7.0890125    1.0431373   -6.0458752    1.0407865   0.69559877    4103.2521   0.02129246 
 2170000   -7.1029844    1.0560101   -6.0469744    0.9744898   0.70418275    4103.2521   0.02374525 
 2171000     -7.09354    1.0649272   -6.0286128    1.0332049   0.71012898    4103.2521  0.027440027 
 2172000   -7.0973201     1.083338   -6.0139821    1.0275775   0.72240594    4103.2521  0.028194866 
 2173000   -7.0793546     1.059371   -6.0199836    1.1197468   0.70642396    4103.2521  0.032114405 
 2174000   -7.0901209    1.0250895   -6.0650314    1.0267724   0.68356387    4103.2521  0.030715425 
 2175000   -7.0744162    1.0103805   -6.0640357    1.0968206   0.67375544    4103.2521  0.027754914 
 2176000   -7.0737079     1.065937   -6.0077709    1.1440725   0.71080236    4103.2521  0.024640856 
 2177000   -7.0975218    1.0802016   -6.0173201    1.0196739    0.7203145    4103.2521   0.02825522 
 2178000   -7.0885551    1.0287135   -6.0598416    1.0227512   0.68598048    4103.2521  0.029316547 
 2179000   -7.0814931    1.0336873   -6.0478058    1.0803506   0.68929718    4103.2521   0.02315653 
 2180000   -7.0891812    1.0645137   -6.0246675    1.0706491   0.70985327    4103.2521  0.023373553 
 2181000   -7.0943171    1.0410901   -6.0532269     1.016233   0.69423364    4103.2521  0.021879392 
 2182000   -7.0878155    1.0288068   -6.0590087    1.0463077   0.68604274    4103.2521  0.025504841 
 2183000   -7.1110226    1.0408886    -6.070134   0.92315373   0.69409928    4103.2521  0.024033653 
 2184000    -7.082632    1.0373697   -6.0452623    1.0675973   0.69175273    4103.2521  0.031358138 
 2185000   -7.0790565    1.0588288   -6.0202277    1.1087924   0.70606236    4103.2521  0.025701424 
 2186000   -7.0923696    1.0892079   -6.0031617    1.0574143    0.7263202    4103.2521  0.026186941 
 2187000   -7.0862149    1.0620005   -6.0242144    1.0730002   0.70817736    4103.2521  0.024831906 
 2188000   -7.0890069    1.0525687   -6.0364382     1.052841   0.70188792    4103.2521  0.026757939 
 2189000   -7.1064335    1.0352595    -6.071174   0.94879244   0.69034556    4103.2521  0.024012615 
 2190000   -7.1298114    1.0510116   -6.0787997   0.83038742   0.70084964    4103.2521  0.025662738 
 2191000   -7.1050854     1.078244   -6.0268414   0.98236407   0.71900907    4103.2521   0.03072405 
 2192000   -7.0820431      1.06227   -6.0197732    1.0864846   0.70835707    4103.2521  0.031599091 
 2193000   -7.0896537    1.0797937     -6.00986    1.0538395   0.72004248    4103.2521  0.029367363 
 2194000   -7.0947928    1.0573486   -6.0374442    1.0271633   0.70507532    4103.2521  0.034528353 
 2195000   -7.1080709    1.0579552   -6.0501157   0.95945279   0.70547986    4103.2521  0.033852535 
 2196000   -7.1109883    1.0598137   -6.0511746   0.94529502   0.70671917    4103.2521  0.035907791 
 2197000   -7.0995297    1.0597079   -6.0398218   0.99867261   0.70664856    4103.2521    0.0404294 
 2198000   -7.0729216    1.0511222   -6.0217993    1.1142517    0.7009234    4103.2521  0.043004172 
 2199000   -7.0826161    1.0563085   -6.0263076    1.0817547   0.70438176    4103.2521  0.036551321 
 2200000   -7.0718713    1.0392725   -6.0325988    1.1346024    0.6930216    4103.2521  0.036152887 
 2201000   -7.1054102    1.0568144   -6.0485958   0.98500146   0.70471914    4103.2521  0.037730665 
 2202000   -7.0985236    1.0455881   -6.0529355    1.0017862   0.69723302    4103.2521  0.034588495 
 2203000   -7.0947861    1.0405089   -6.0542772    1.0247529   0.69384608    4103.2521  0.032269386 
 2204000   -7.0893222    1.0606046   -6.0287176    1.0462687   0.70724654    4103.2521  0.031282613 
 2205000   -7.0813012    1.0589566   -6.0223446    1.1059629   0.70614762    4103.2521  0.033333484 
 2206000   -7.0600655    1.0382425    -6.021823    1.1911582   0.69233477    4103.2521  0.034557804 
 2207000   -7.0863481    1.0420659   -6.0442822    1.0723514    0.6948843    4103.2521  0.034686358 
 2208000   -7.1085372    1.0595536   -6.0489836   0.95611331    0.7065457    4103.2521  0.036026504 
 2209000   -7.0716726    1.0439199   -6.0277527    1.1407996   0.69612064    4103.2521  0.037583065 
 2210000   -7.1057373    1.0405146   -6.0652227   0.97109179   0.69384986    4103.2521  0.037673299 
 2211000   -7.1096791    1.0299701    -6.079709   0.91646267   0.68681844    4103.2521  0.036950075 
 2212000    -7.096407    1.0366243   -6.0597827    1.0066972   0.69125567    4103.2521  0.039841381 
 2213000   -7.0954488    1.0484557   -6.0469932    1.0193859   0.69914522    4103.2521  0.039691513 
 2214000   -7.0676137     1.080537   -5.9870767    1.1756184   0.72053812    4103.2521  0.043593064 
 2215000   -7.0829869    1.0458766   -6.0371103    1.0846682    0.6974254    4103.2521  0.042141553 
 2216000    -7.092902    1.0448977   -6.0480043    1.0309671   0.69677264    4103.2521  0.044981587 
 2217000   -7.0869158    1.0272093   -6.0597064    1.0552471   0.68497747    4103.2521  0.045071701 
 2218000   -7.1120068    1.0385945   -6.0734123   0.92162913   0.69256948    4103.2521  0.045877773 
 2219000   -7.0858519    1.0399144   -6.0459375    1.0715918   0.69344963    4103.2521  0.044359628 
 2220000    -7.096568    1.0698266   -6.0267415    1.0431049   0.71339605    4103.2521    0.0441524 
 2221000   -7.0828852    1.0417846   -6.0411005    1.0867181   0.69469677    4103.2521  0.044299898 
 2222000   -7.1137164    1.0459784   -6.0677379   0.92089192   0.69749334    4103.2521  0.042902616 
 2223000   -7.0782249    1.0259355   -6.0522894    1.1037745   0.68412805    4103.2521  0.049339705 
 2224000   -7.1007127    1.0456648   -6.0550479   0.99409834   0.69728422    4103.2521  0.046491995 
 2225000   -7.0542365    1.0777045    -5.976532    1.2441647   0.71864933    4103.2521  0.044967544 
 2226000   -7.0956328     1.053698   -6.0419348    1.0119346   0.70264101    4103.2521  0.047439927 
 2227000   -7.0899862    1.0441252    -6.045861    1.0350888   0.69625755    4103.2521  0.047701624 
 2228000    -7.098451    1.0424856   -6.0559654   0.99082888   0.69516418    4103.2521  0.048488663 
 2229000    -7.087321    1.0658187   -6.0215023    1.0666526   0.71072345    4103.2521  0.047096475 
 2230000   -7.0844079    1.0652023   -6.0192055    1.0843697   0.71031248    4103.2521  0.056479394 
 2231000   -7.0655372    1.0388021   -6.0267351    1.1538272   0.69270788    4103.2521  0.062276887 
 2232000   -7.0904278    1.0528865   -6.0375414    1.0351632   0.70209983    4103.2521  0.058881938 
 2233000   -7.0851985    1.0379876   -6.0472109    1.0641662   0.69216478    4103.2521  0.056139997 
 2234000   -7.1221736    1.0396392   -6.0825344   0.84697117   0.69326611    4103.2521  0.047375416 
 2235000   -7.1022513    1.0376189   -6.0646324   0.97258626   0.69191893    4103.2521   0.05098693 
 2236000   -7.0914108     1.042498   -6.0489127    1.0238135   0.69517248    4103.2521  0.050274365 
 2237000   -7.0870718    1.0430104   -6.0440613    1.0472557   0.69551416    4103.2521  0.045403393 
 2238000   -7.0824819    1.0703825   -6.0120993     1.099782   0.71376681    4103.2521  0.054607032 
 2239000    -7.076095    1.0583838   -6.0177112    1.1141056   0.70576564    4103.2521  0.060536492 
 2240000   -7.0912228    1.0487894   -6.0424334    1.0492071   0.69936776    4103.2521  0.058838351 
 2241000   -7.1018576    1.0524286    -6.049429   0.97937991   0.70179454    4103.2521  0.057001878 
 2242000   -7.0923811    1.0490851    -6.043296    1.0276335   0.69956498    4103.2521  0.056561731 
 2243000   -7.0852265    1.0433783   -6.0418482    1.0642788   0.69575949    4103.2521  0.053129932 
 2244000   -7.1021233    1.0689865   -6.0331368   0.99168262   0.71283586    4103.2521  0.053464451 
 2245000   -7.0988741    1.0647852   -6.0340889   0.99586657   0.71003433    4103.2521  0.046089241 
 2246000   -7.0922082    1.0518876   -6.0403206    1.0339381   0.70143375    4103.2521  0.049553413 
 2247000   -7.1130351    1.0251933   -6.0878419   0.89785609   0.68363309    4103.2521  0.044607037 
 2248000   -7.1011587    1.0554556   -6.0457032   0.99512295     0.703813    4103.2521  0.041195117 
 2249000   -7.1000287    1.0667511   -6.0332776   0.99678808   0.71134527    4103.2521    0.0450707 
 2250000   -7.0911068    1.0656551   -6.0254518    1.0652996   0.71061435    4103.2521  0.042816416 
 2251000   -7.0912358    1.0447964   -6.0464394    1.0394375   0.69670512    4103.2521  0.042907893 
 2252000   -7.1102681    1.0449702    -6.065298   0.93842079   0.69682098    4103.2521  0.038385632 
 2253000   -7.1054388     1.040999   -6.0644398   0.96201009   0.69417286    4103.2521  0.041493526 
 2254000   -7.0868597    1.0602098   -6.0266499    1.0567414   0.70698328    4103.2521  0.047717495 
 2255000   -7.0846595    1.0691994   -6.0154601    1.0907862   0.71297787    4103.2521  0.047124121 
 2256000   -7.0771466    1.0704393   -6.0067073     1.115351   0.71380465    4103.2521  0.042971069 
 2257000   -7.0975584    1.0540768   -6.0434815    1.0059868    0.7028936    4103.2521   0.04411736 
 2258000   -7.1130065     1.065466   -6.0475405   0.94321642   0.71048829    4103.2521  0.042705525 
 2259000   -7.1078655    1.0525812   -6.0552842   0.94551209   0.70189629    4103.2521  0.043917602 
 2260000   -7.0962323    1.0833139   -6.0129184    1.0464554   0.72238983    4103.2521  0.054804019 
 2261000    -7.070283    1.0559033   -6.0143797    1.1371944   0.70411157    4103.2521  0.047064243 
 2262000   -7.0899852    1.0610815   -6.0289037    1.0736162   0.70756454    4103.2521  0.046657766 
 2263000    -7.097839    1.0568213   -6.0410177    1.0096875   0.70472371    4103.2521  0.043030466 
 2264000   -7.1029736    1.0307259   -6.0722477   0.96734288   0.68732242    4103.2521  0.044492611 
 2265000       -7.103    1.0295672   -6.0734328   0.94409489   0.68654975    4103.2521   0.04534781 
 2266000    -7.097431    1.0351569   -6.0622741   0.98681855   0.69027717    4103.2521  0.038220372 
 2267000   -7.0899255    1.0414736   -6.0484519    1.0362615   0.69448939    4103.2521  0.041082206 
 2268000   -7.0930497    1.0702171   -6.0228326    1.0394827   0.71365649    4103.2521  0.043574332 
 2269000    -7.061047    1.0483156   -6.0127314    1.2005955   0.69905182    4103.2521  0.043302111 
 2270000   -7.0887286    1.0535565   -6.0351722    1.0432125   0.70254662    4103.2521  0.043635939 
 2271000   -7.0933737    1.0418802   -6.0514935    1.0230555   0.69476046    4103.2521  0.041005841 
 2272000   -7.0860781    1.0310107   -6.0550674    1.0487716   0.68751236    4103.2521  0.039436205 
 2273000   -7.0992049    1.0411969   -6.0580079   0.98905363   0.69430486    4103.2521  0.039759554 
 2274000    -7.092376    1.0572252   -6.0351508    1.0303453   0.70499304    4103.2521  0.040912121 
 2275000   -7.0872178    1.0480013   -6.0392165    1.0550175   0.69884222    4103.2521  0.043136034 
 2276000   -7.0931702    1.0576832    -6.035487     1.032813   0.70529848    4103.2521  0.041570292 
 2277000     -7.09775    1.0024574   -6.0952926   0.95795352   0.66847205    4103.2521  0.044502187 
 2278000   -7.0942968    1.0311554   -6.0631414     1.001985   0.68760881    4103.2521  0.041518473 
 2279000   -7.1011232    1.0480148   -6.0531084   0.99994967   0.69885128    4103.2521  0.042416456 
 2280000   -7.0389657    1.0634201   -5.9755456    1.3254121   0.70912402    4103.2521  0.048663737 
 2281000   -7.0956791    1.0553464   -6.0403328    1.0178186   0.70374018    4103.2521  0.046162565 
 2282000   -7.1106771    1.0659998   -6.0446773   0.94530223   0.71084426    4103.2521  0.039737446 
 2283000   -7.0874076    1.0197692   -6.0676384     1.038925   0.68001614    4103.2521  0.036886631 
 2284000    -7.118054    1.0357309   -6.0823231    0.8788633   0.69065994    4103.2521   0.04292723 
 2285000   -7.0973459    1.0520042   -6.0453417   0.99531759   0.70151152    4103.2521  0.042827149 
 2286000   -7.0842995    1.0579433   -6.0263562    1.0909713   0.70547187    4103.2521  0.038138118 
 2287000   -7.1074141    1.0346027   -6.0728114   0.92425283   0.68990762    4103.2521  0.036052333 
 2288000   -7.1117642    1.0449419   -6.0668223   0.92435017   0.69680215    4103.2521  0.038137219 
 2289000   -7.0897269    1.0470357   -6.0426911    1.0487869   0.69819836    4103.2521  0.041923984 
 2290000   -7.0972278     1.065642   -6.0315857    1.0030326   0.71060566    4103.2521  0.034953532 
 2291000   -7.0930151    1.0584752   -6.0345399     1.053132   0.70582657    4103.2521  0.035231486 
 2292000   -7.0744972    1.0330221   -6.0414751    1.1327466   0.68885363    4103.2521  0.035232241 
 2293000    -7.102918    1.0534574   -6.0494607   0.96766186   0.70248053    4103.2521  0.033523546 
 2294000   -7.1044399    1.0427086   -6.0617313   0.95951156    0.6953129    4103.2521   0.03340572 
 2295000   -7.1017814     1.035847   -6.0659344   0.96145265   0.69073733    4103.2521  0.032925028 
 2296000   -7.0945295    1.0435039   -6.0510255    1.0230981   0.69584325    4103.2521  0.034624934 
 2297000    -7.074313    1.0355117   -6.0388013    1.1165561   0.69051375    4103.2521  0.036470872 
 2298000   -7.1014728    1.0528788   -6.0485939   0.98273084   0.70209474    4103.2521  0.039997501 
 2299000    -7.089575     1.021693    -6.067882    1.0237678   0.68129902    4103.2521  0.038422068 
 2300000   -7.0958049    1.0350435   -6.0607614    1.0031921   0.69020155    4103.2521  0.035310012 
 2301000   -7.0940273    1.0520983   -6.0419289    1.0467927   0.70157429    4103.2521  0.036878796 
 2302000   -7.0865823    1.0446279   -6.0419544    1.0555082   0.69659277    4103.2521  0.039003729 
 2303000   -7.0794905     1.051121   -6.0283696    1.1017221   0.70092253    4103.2521  0.038559948 
 2304000   -7.0721726    1.0639422   -6.0082304    1.1538095   0.70947216    4103.2521  0.039422903 
 2305000   -7.0905097    1.0451839   -6.0453258    1.0421806   0.69696348    4103.2521  0.048395363 
 2306000   -7.0825494    1.0358125   -6.0467369    1.0822755   0.69071435    4103.2521   0.04003505 
 2307000   -7.1063741    1.0382001    -6.068174    0.9419551   0.69230646    4103.2521  0.040394682 
 2308000   -7.0850503    1.0330552   -6.0519951     1.044189   0.68887569    4103.2521  0.038972663 
 2309000   -7.0955964    1.0685826   -6.0270138     1.006416   0.71256657    4103.2521  0.036688128 
 2310000   -7.0841202    1.0433389   -6.0407813    1.0667158   0.69573319    4103.2521    0.0351709 
 2311000   -7.0941877    1.0519721   -6.0422156     1.027537   0.70149011    4103.2521  0.036572362 
 2312000   -7.0979043    1.0640798   -6.0338245    1.0138479   0.70956393    4103.2521  0.035399917 
 2313000   -7.0902873    1.0455514   -6.0447359    1.0323549   0.69720857    4103.2521  0.036215425 
 2314000   -7.0936814    1.0437439   -6.0499375    1.0250331   0.69600327    4103.2521  0.036098952 
 2315000   -7.1067004    1.0393569   -6.0673435   0.94168458   0.69307788    4103.2521   0.04239662 
 2316000    -7.104014    1.0509572   -6.0530568    0.9752328   0.70081336    4103.2521  0.045811904 
 2317000   -7.0951671    1.0633692   -6.0317979    1.0282967   0.70909008    4103.2521  0.041882963 
 2318000    -7.081619    1.0537438   -6.0278752    1.0912936   0.70267153    4103.2521  0.041347852 
 2319000   -7.0675409    1.0535453   -6.0139957    1.1536348   0.70253916    4103.2521  0.040084457 
 2320000   -7.0939274    1.0559041   -6.0380232    1.0267458   0.70411212    4103.2521  0.036945847 
 2321000   -7.1066896    1.0437754   -6.0629142   0.94682894   0.69602427    4103.2521  0.042256871 
 2322000   -7.0857996    1.0367684   -6.0490312    1.0477871   0.69135177    4103.2521  0.046442511 
 2323000   -7.0594724    1.0364698   -6.0230027    1.1907231   0.69115265    4103.2521  0.049548712 
 2324000   -7.0661072    1.0590397   -6.0070675    1.1753563     0.706203    4103.2521  0.048935723 
 2325000   -7.0739249    1.0486937   -6.0252312    1.1314053   0.69930397    4103.2521  0.047160333 
 2326000   -7.0995776    1.0545485    -6.045029   0.98785364   0.70320816    4103.2521  0.046831979 
 2327000    -7.083322    1.0309511   -6.0523709    1.0614602    0.6874726    4103.2521  0.048927347 
 2328000   -7.1183786    1.0508357   -6.0675429   0.88670476   0.70073234    4103.2521  0.045102285 
 2329000   -7.1029934    1.0177387   -6.0852546    0.9473718   0.67866217    4103.2521  0.039803155 
 2330000   -7.0936633    1.0431814   -6.0504819    1.0041159   0.69562816    4103.2521  0.036256866 
 2331000   -7.0900105    1.0488401   -6.0411704    1.0390945   0.69940156    4103.2521   0.03695239 
 2332000   -7.0750459    1.0476122   -6.0274337     1.115322   0.69858281    4103.2521  0.036263596 
 2333000    -7.080277    1.0597834   -6.0204936    1.1219625   0.70669892    4103.2521  0.034327882 
 2334000   -7.0673595    1.0522275    -6.015132    1.1853853   0.70166041    4103.2521  0.035452347 
 2335000   -7.0855203    1.0436216   -6.0418987    1.0727905   0.69592172    4103.2521  0.032931955 
 2336000   -7.0937901    1.0441663   -6.0496238    1.0178656   0.69628494    4103.2521  0.036280766 
 2337000   -7.1069942    1.0535318   -6.0534624   0.95352258   0.70253014    4103.2521  0.033282297 
 2338000   -7.0974995    1.0762392   -6.0212603    1.0160973    0.7176722    4103.2521  0.034148176 
 2339000   -7.0743756    1.0557559   -6.0186197    1.1281563   0.70401329    4103.2521  0.038501896 
 2340000   -7.0926014    1.0627065   -6.0298949     1.048704   0.70864814    4103.2521  0.038537645 
 2341000   -7.1068214    1.0711913   -6.0356301    0.9784971    0.7143061    4103.2521  0.034807326 
 2342000   -7.1160345    1.0704321   -6.0456024   0.90923167   0.71379986    4103.2521  0.037391846 
 2343000     -7.09311    1.0408325   -6.0522775    1.0232695   0.69406185    4103.2521  0.039175651 
 2344000   -7.0942533    1.0534536   -6.0407997    1.0287485   0.70247804    4103.2521  0.032603297 
 2345000   -7.0936832    1.0609174   -6.0327658    1.0438301   0.70745514    4103.2521  0.033623383 
 2346000   -7.0853486    1.0526913   -6.0326573    1.0790092   0.70196969    4103.2521  0.033733256 
 2347000   -7.0978147    1.0547025   -6.0431122    1.0005375   0.70331084    4103.2521  0.034629925 
 2348000   -7.0975216    1.0356953   -6.0618262   0.99879069   0.69063622    4103.2521  0.034773256 
 2349000   -7.0947565     1.036216   -6.0585405    1.0148887   0.69098342    4103.2521   0.03410911 
 2350000   -7.0979743    1.0645277   -6.0334466    1.0168929   0.70986261    4103.2521  0.035575193 
 2351000   -7.0789621    1.0477469   -6.0312152    1.0907755   0.69867262    4103.2521  0.039088084 
 2352000   -7.0842252    1.0667144   -6.0175108       1.0832   0.71132076    4103.2521  0.035097218 
 2353000    -7.111888    1.0693694   -6.0425186   0.93308171   0.71309121    4103.2521  0.032290951 
 2354000   -7.0954733     1.041964   -6.0535093    1.0067095   0.69481636    4103.2521  0.033063174 
 2355000   -7.0983739    1.0518901   -6.0464838   0.99180151   0.70143543    4103.2521  0.034612935 
 2356000   -7.0877984    1.0508765   -6.0369219    1.0477646    0.7007595    4103.2521  0.034181495 
 2357000   -7.0804383     1.050866   -6.0295723    1.0770358   0.70075249    4103.2521  0.033865507 
 2358000   -7.0684396    1.0426404   -6.0257992     1.165384   0.69526741    4103.2521  0.036160593 
 2359000   -7.1050747    1.0600539   -6.0450208   0.95906342    0.7068793    4103.2521  0.035352932 
 2360000   -7.1177501    1.0553887   -6.0623614   0.88768927   0.70376841    4103.2521  0.036033559 
 2361000   -7.0949985    1.0500441   -6.0449544     1.024961   0.70020446    4103.2521   0.03580979 
 2362000   -7.0933285    1.0530177   -6.0403108    1.0348008   0.70218734    4103.2521  0.033732524 
 2363000   -7.0912619    1.0367276   -6.0545343    1.0231417   0.69132459    4103.2521  0.035000113 
 2364000    -7.101748    1.0461071   -6.0556409   0.96448326   0.69757916    4103.2521  0.033293953 
 2365000   -7.1101252    1.0710083   -6.0391169   0.95534001   0.71418411    4103.2521  0.034872463 
 2366000   -7.0825191     1.052449   -6.0300701    1.0764666   0.70180812    4103.2521  0.036548169 
 2367000    -7.076162    1.0426932   -6.0334688     1.105322   0.69530262    4103.2521  0.039831186 
 2368000   -7.1048651    1.0502935   -6.0545716   0.96625102   0.70037078    4103.2521   0.03736685 
 2369000   -7.1196311    1.0569779   -6.0626532   0.88936025   0.70482816    4103.2521  0.041014315 
 2370000   -7.1035364    1.0512144    -6.052322   0.97422008   0.70098486    4103.2521   0.04366403 
 2371000    -7.088625    1.0522573   -6.0363677    1.0592168   0.70168026    4103.2521  0.046416642 
 2372000   -7.0945893    1.0743257   -6.0202636    1.0568444   0.71639622    4103.2521  0.043192168 
 2373000   -7.0691576    1.0653972   -6.0037604    1.1594725    0.7104424    4103.2521  0.045640369 
 2374000   -7.0779965    1.0206529   -6.0573436    1.0763772   0.68060539    4103.2521   0.03979055 
 2375000   -7.0963827    1.0573595   -6.0390232     1.025808   0.70508262    4103.2521   0.04616592 
 2376000   -7.0938548    1.0714684   -6.0223864    1.0532743   0.71449086    4103.2521  0.042091739 
 2377000   -7.0889564    1.0503117   -6.0386447    1.0466168   0.70038286    4103.2521  0.037336535 
 2378000   -7.1069066    1.0148575   -6.0920491   0.93907841   0.67674083    4103.2521  0.036776321 
 2379000    -7.080247    1.0545705   -6.0256765    1.0951017    0.7032228    4103.2521  0.038241205 
 2380000   -7.0702195    1.0427763   -6.0274432    1.1515748   0.69535802    4103.2521   0.04227142 
 2381000   -7.1014871    1.0582304   -6.0432567   0.98657345   0.70566336    4103.2521   0.04008132 
 2382000   -7.1007626    1.0426229   -6.0581397   0.97811677   0.69525573    4103.2521  0.038500848 
 2383000   -7.0853039    1.0405461   -6.0447577    1.0757029   0.69387088    4103.2521  0.038577253 
 2384000   -7.0802229    1.0515734   -6.0286495    1.0913985   0.70122423    4103.2521  0.040579941 
 2385000   -7.0704269    1.0731361   -5.9972907    1.1509192   0.71560298    4103.2521  0.040029059 
 2386000   -7.0821134    1.0514372   -6.0306761    1.0884753   0.70113345    4103.2521   0.04091613 
 2387000   -7.1065755    1.0629617   -6.0436138   0.95518304   0.70881836    4103.2521  0.040265835 
 2388000   -7.0936734    1.0352974    -6.058376     1.020629   0.69037087    4103.2521   0.04352183 
 2389000   -7.1043538    1.0358253   -6.0685285   0.95846801   0.69072289    4103.2521  0.045043361 
 2390000    -7.098048       1.0332    -6.064848   0.99787648   0.68897222    4103.2521  0.041391101 
 2391000   -7.1049131    1.0683861    -6.036527   0.96722261   0.71243552    4103.2521   0.03899921 
 2392000   -7.0699724     1.037292   -6.0326805    1.1460811   0.69170091    4103.2521  0.041689919 
 2393000   -7.0837825    1.0426122   -6.0411704     1.066773   0.69524859    4103.2521  0.040177938 
 2394000   -7.0933708    1.0279977    -6.065373    1.0160394    0.6855032    4103.2521  0.041962762 
 2395000   -7.0849966    1.0362263   -6.0487703     1.052834   0.69099027    4103.2521  0.040394861 
 2396000   -7.0853283    1.0887868   -5.9965415    1.0955826   0.72603939    4103.2521  0.041583132 
 2397000   -7.0900731    1.0627716   -6.0273015     1.061782   0.70869158    4103.2521  0.040603642 
 2398000   -7.0981339     1.052792   -6.0453419    1.0070226   0.70203687    4103.2521  0.042112124 
 2399000   -7.1175256    1.0626972   -6.0548284   0.90704903   0.70864195    4103.2521  0.040123557 
 2400000   -7.1131425    1.0441892   -6.0689533   0.91123982   0.69630018    4103.2521  0.040152888 
 2401000   -7.0926061    1.0261575   -6.0664486    1.0205476   0.68427607    4103.2521  0.043648179 
 2402000   -7.0957991    1.0592241    -6.036575    1.0140109   0.70632598    4103.2521   0.04148539 
 2403000   -7.0840932    1.0522054   -6.0318877    1.0834232    0.7016457    4103.2521  0.042602672 
 2404000   -7.1000649    1.0528539   -6.0472111   0.98701227    0.7020781    4103.2521  0.040791217 
 2405000   -7.1013358    1.0296292   -6.0717066   0.95807774   0.68659109    4103.2521  0.041346331 
 2406000   -7.0986967    1.0338722   -6.0648245   0.99304974   0.68942048    4103.2521  0.041900012 
 2407000   -7.0930999    1.0332745   -6.0598254    1.0244344   0.68902192    4103.2521  0.042596562 
 2408000   -7.0963327    1.0531032   -6.0432295    1.0163997   0.70224434    4103.2521  0.042280885 
 2409000   -7.1001799    1.0688632   -6.0313166   0.99092086   0.71275369    4103.2521   0.04325278 
 2410000   -7.0766947    1.0826487    -5.994046    1.1309332   0.72194629    4103.2521  0.041809653 
 2411000   -7.1080743    1.0542077   -6.0538666   0.94691127   0.70298087    4103.2521  0.045455558 
 2412000   -7.1122583     1.048486   -6.0637723   0.92319456   0.69916546    4103.2521  0.044553946 
 2413000   -7.1192601    1.0637533   -6.0555068   0.89742604   0.70934621    4103.2521  0.049075338 
 2414000   -7.0800776    1.0404412   -6.0396364    1.0783521   0.69380094    4103.2521  0.054763807 
 2415000   -7.0838571    1.0544137   -6.0294434    1.0884021   0.70311824    4103.2521  0.053576982 
 2416000    -7.089045    1.0397483   -6.0492967    1.0300764   0.69333888    4103.2521  0.057572214 
 2417000    -7.100592    1.0344893   -6.0661027   0.97915228     0.689832    4103.2521  0.061485149 
 2418000   -7.0996576    1.0527569   -6.0469007    1.0002663   0.70201346    4103.2521  0.052575839 
 2419000   -7.0685974    1.0480675   -6.0205299    1.1550691   0.69888639    4103.2521  0.045993519 
 2420000   -7.0850576    1.0716554   -6.0134022    1.0852081   0.71461557    4103.2521  0.044107005 
 2421000   -7.0780258    1.0473242   -6.0307016    1.1086913   0.69839071    4103.2521  0.046232653 
 2422000   -7.0826963    1.0321873    -6.050509    1.0600139   0.68829692    4103.2521  0.045987199 
 2423000   -7.0920407      1.03703   -6.0550106    1.0083115   0.69152624    4103.2521  0.049771334 
 2424000   -7.0746338    1.0714561   -6.0031778    1.1506776   0.71448267    4103.2521  0.050836906 
 2425000   -7.0879267    1.0680458   -6.0198809    1.0629401   0.71220857    4103.2521  0.047731884 
 2426000   -7.0929788    1.0602191   -6.0327596    1.0377945    0.7069895    4103.2521  0.039649123 
 2427000   -7.1036849    1.0701226   -6.0335623   0.97130151   0.71359348    4103.2521  0.038373356 
 2428000   -7.0921225    1.0360728   -6.0560497    1.0261244   0.69088792    4103.2521  0.038507775 
 2429000   -7.1108996    1.0316632   -6.0792364    0.9179907   0.68794743    4103.2521  0.039563777 
 2430000   -7.0844356    1.0229815   -6.0614541    1.0539038   0.68215822    4103.2521  0.042317119 
 2431000   -7.0883632    1.0461302    -6.042233    1.0534275   0.69759454    4103.2521  0.038716986 
 2432000   -7.0692734     1.037688   -6.0315854    1.1507135   0.69196498    4103.2521  0.042443409 
 2433000   -7.0692662    1.0568264   -6.0124398    1.1546602    0.7047271    4103.2521   0.04060995 
 2434000   -7.0677518    1.0630086   -6.0047431    1.1659789   0.70884964    4103.2521  0.044736574 
 2435000   -7.0835432    1.0399092    -6.043634    1.0536472   0.69344618    4103.2521  0.049037042 
 2436000   -7.1071203    1.0589721   -6.0481481   0.95681957   0.70615797    4103.2521  0.050688143 
 2437000    -7.093919    1.0420267   -6.0518924    1.0196487   0.69485816    4103.2521  0.053366581 
 2438000   -7.0944583    1.0344052   -6.0600531    1.0035879   0.68977591    4103.2521  0.048773933 
 2439000   -7.1050314    1.0560674   -6.0489641   0.97154574   0.70422098    4103.2521  0.043546647 
 2440000   -7.0967829    1.0619364   -6.0348465    1.0141445   0.70813462    4103.2521   0.04164709 
 2441000   -7.0843453    1.0500231   -6.0343222    1.0778705   0.70019043    4103.2521  0.043869975 
 2442000   -7.0846863    1.0502103    -6.034476    1.0723867   0.70031526    4103.2521  0.042348127 
 2443000   -7.1274466    1.0346116    -6.092835   0.82982579   0.68991356    4103.2521  0.042850085 
 2444000   -7.0840011    1.0219642   -6.0620369    1.0476578   0.68147982    4103.2521  0.043464447 
 2445000   -7.1004577    1.0470733   -6.0533844   0.97773984   0.69822341    4103.2521  0.041418172 
 2446000   -7.0925808    1.0541336   -6.0384472    1.0276547   0.70293147    4103.2521  0.044899311 
 2447000   -7.0911183     1.071825   -6.0192932    1.0520214   0.71472871    4103.2521  0.046047523 
 2448000   -7.0721677    1.0320923   -6.0400754    1.1171773   0.68823361    4103.2521  0.046394359 
 2449000   -7.1042322    1.0492142    -6.055018   0.95690875   0.69965106    4103.2521  0.054249375 
 2450000   -7.0895653    1.0219699   -6.0675955    1.0292428   0.68148363    4103.2521  0.065233215 
 2451000   -7.0902635    1.0411718   -6.0490917    1.0249544   0.69428811    4103.2521  0.066921973 
 2452000   -7.0909879    1.0591378   -6.0318501    1.0480928   0.70626842    4103.2521  0.061264854 
 2453000   -7.0733239    1.0409319    -6.032392    1.1178774   0.69412814    4103.2521  0.065244628 
 2454000   -7.1100856    1.0770348   -6.0330508   0.95630097   0.71820276    4103.2521  0.081772987 
 2455000   -7.0997568    1.0543418   -6.0454151   0.99748637   0.70307028    4103.2521   0.07497419 
 2456000   -7.0940313    1.0451099   -6.0489214    1.0160204   0.69691416    4103.2521  0.085793401 
 2457000   -7.1007165    1.0537763   -6.0469403   0.98745778   0.70269319    4103.2521  0.084551346 
 2458000   -7.0848202    1.0560584   -6.0287617    1.0845033     0.704215    4103.2521  0.081255698 
 2459000   -7.0913411    1.0580555   -6.0332857    1.0609689   0.70554669    4103.2521  0.097366038 
 2460000   -7.0839697    1.0551855   -6.0287842    1.0644731   0.70363293    4103.2521    0.1073816 
 2461000   -7.0964414    1.0515409   -6.0449006   0.98553003   0.70120254    4103.2521   0.10713132 
 2462000     -7.09521    1.0287492   -6.0664608    1.0014553   0.68600431    4103.2521   0.11138025 
 2463000   -7.0967368    1.0490457   -6.0476911   0.99720489   0.69953865    4103.2521   0.09673736 
 2464000   -7.0729315    1.0676606   -6.0052709    1.1453569    0.7119517    4103.2521  0.096570737 
 2465000   -7.0810513     1.067409   -6.0136423    1.0835868   0.71178393    4103.2521   0.10812893 
 2466000   -7.0822082    1.0495273   -6.0326809    1.0734779   0.69985984    4103.2521   0.10369853 
 2467000   -7.1062209    1.0649771   -6.0412438   0.95868367   0.71016225    4103.2521  0.099184365 
 2468000   -7.1288352    1.0424471   -6.0863881   0.81747241   0.69513849    4103.2521   0.10728931 
 2469000   -7.0944635    1.0295965    -6.064867   0.99969886   0.68656934    4103.2521   0.11558585 
 2470000   -7.0824317    1.0377493   -6.0446824    1.0822516   0.69200584    4103.2521   0.13065782 
 2471000   -7.0876217    1.0602753   -6.0273464    1.0641635   0.70702696    4103.2521   0.11500409 
 2472000   -7.0813003    1.0610965   -6.0202037    1.0963068   0.70757457    4103.2521   0.11301802 
 2473000   -7.0911824    1.0825005   -6.0086819    1.0613285   0.72184744    4103.2521   0.11059382 
 2474000   -7.1015547     1.071292   -6.0302627    1.0007819   0.71437323    4103.2521   0.11355059 
 2475000   -7.1038344    1.0554835   -6.0483509   0.97956468   0.70383164    4103.2521   0.11326272 
 2476000   -7.1100148    1.0528698    -6.057145    0.9432384   0.70208873    4103.2521   0.10817364 
 2477000   -7.0785886    1.0614277   -6.0171609    1.1143584    0.7077954    4103.2521   0.11829237 
 2478000   -7.0874182    1.0682799   -6.0191384     1.050295   0.71236467    4103.2521   0.11535454 
 2479000    -7.084538    1.0534817   -6.0310563    1.0694639   0.70249675    4103.2521   0.11302245 
 2480000   -7.1047462    1.0658445   -6.0389017   0.98674097   0.71074067    4103.2521   0.10011038 
 2481000   -7.1038928    1.0372511   -6.0666418   0.96171617   0.69167362    4103.2521   0.11076797 
 2482000   -7.1104431     1.045072   -6.0653711   0.92994946    0.6968889    4103.2521   0.11124849 
 2483000   -7.0822207    1.0354634   -6.0467573    1.0719345   0.69048153    4103.2521   0.11286129 
 2484000   -7.0850473    1.0551171   -6.0299302    1.0744875    0.7035873    4103.2521   0.11122075 
 2485000   -7.1006288    1.0661632   -6.0344656   0.99930562   0.71095318    4103.2521  0.094257087 
 2486000   -7.0812561    1.0366056   -6.0446504    1.0735475   0.69124323    4103.2521   0.10132572 
 2487000   -7.1063048    1.0559912   -6.0503137   0.95140725   0.70417015    4103.2521  0.099198962 
 2488000   -7.1022186    1.0484485   -6.0537701   0.98976585   0.69914047    4103.2521   0.10011385 
 2489000   -7.0762216    1.0451064   -6.0311152    1.1186542   0.69691182    4103.2521   0.10592653 
 2490000   -7.0868459    1.0654934   -6.0213524    1.0760851   0.71050659    4103.2521   0.11162768 
 2491000   -7.0888887    1.0495614   -6.0393273    1.0499727   0.69988258    4103.2521   0.10317557 
 2492000   -7.1130168    1.0388421   -6.0741747   0.90274586   0.69273458    4103.2521   0.10465614 
 2493000   -7.0936488    1.0217975   -6.0718513    1.0174352   0.68136868    4103.2521   0.10820344 
 2494000   -7.1035653     1.056612   -6.0469533   0.98425684   0.70458413    4103.2521   0.10749324 
 2495000   -7.0648321    1.0383588   -6.0264733    1.1784864   0.69241233    4103.2521   0.10280069 
 2496000   -7.1181779    1.0582755   -6.0599024   0.88795582   0.70569341    4103.2521    0.1003805 
 2497000   -7.1147298    1.0444481   -6.0702817   0.89444335   0.69647286    4103.2521  0.096737234 
 2498000   -7.0861095      1.04906   -6.0370494    1.0488791   0.69954822    4103.2521   0.08950856 
 2499000   -7.0951494    1.0571822   -6.0379672    1.0245108   0.70496438    4103.2521    0.0887915 
 2500000   -7.1000827    1.0487511   -6.0513316   0.98921927   0.69934227    4103.2521     0.090474 
Loop time of 1791.22 on 2 procs for 400000 steps with 4000 atoms

Performance: 96470.709 tau/day, 223.312 timesteps/s
99.0% CPU use with 2 MPI tasks x no OpenMP threads

MPI task timing breakdown:
Section |  min time  |  avg time  |  max time  |%varavg| %total
---------------------------------------------------------------
Pair    | 1554.5     | 1554.6     | 1554.7     |   0.3 | 86.79
Neigh   | 164.96     | 164.99     | 165.01     |   0.2 |  9.21
Comm    | 46.495     | 46.604     | 46.712     |   1.6 |  2.60
Output  | 0.86717    | 0.86921    | 0.87126    |   0.2 |  0.05
Modify  | 19.221     | 19.242     | 19.264     |   0.5 |  1.07
Other   |            | 4.909      |            |       |  0.27

Nlocal:    2000 ave 2004 max 1996 min
Histogram: 1 0 0 0 0 0 0 0 0 1
Nghost:    6498.5 ave 6511 max 6486 min
Histogram: 1 0 0 0 0 0 0 0 0 1
Neighs:    221660 ave 222595 max 220725 min
Histogram: 1 0 0 0 0 0 0 0 0 1

Total # of neighbors = 443320
Ave neighs/atom = 110.83
Neighbor list builds = 20000
Dangerous builds not checked
unfix     intnvt
unfix     rdfnvt
uncompute rdfnvt
uncompute msd
undump    idnvt

next      a
jump      in.melt temploop #it will again transfer the call to label temploop line
variable    a loop 11   #loop parameter defined
variable    temp equal 0.3+($a-1)*0.1   #temp value will increase at rate of 0.1 from 0.3 till 1.3
variable    temp equal 0.3+(6-1)*0.1   

log       log.lammps.npt.${temp}
log       log.lammps.npt.0.8
