thermo    ${nthermo}
thermo    1000
thermo_style custom step pe ke etotal press temp vol c_msd[4]
dump      idnvt all atom 1000 out.dump.nvt.${temp}.lammpstrj
dump      idnvt all atom 1000 out.dump.nvt.1.2.lammpstrj
restart   100000 restartnpt1.data restartnp2.data

fix       intnvt all nvt temp ${temp} ${temp} ${tdamp}
fix       intnvt all nvt temp 1.2 ${temp} ${tdamp}
fix       intnvt all nvt temp 1.2 1.2 ${tdamp}
fix       intnvt all nvt temp 1.2 1.2 1
run       400000
Neighbor list info ...
  update every 20 steps, delay 0 steps, check no
  max neighbors/atom: 2000, page size: 100000
  master list distance cutoff = 3.8
  ghost atom cutoff = 3.8
  binsize = 1.9, bins = 10 10 10
  2 neighbor lists, perpetual/occasional/extra = 1 1 0
  (1) pair lj/cut, perpetual
      attributes: half, newton on
      pair build: half/bin/atomonly/newton
      stencil: half/bin/3d/newton
      bin: standard
  (2) compute rdf, occasional, copy from (1)
      attributes: half, newton on
      pair build: copy
      stencil: none
      bin: none
Per MPI rank memory allocation (min/avg/max) = 4.739 | 4.739 | 4.739 Mbytes
Step PotEng KinEng TotEng Press Temp Volume c_msd[4] 
 4600000   -4.7626348    1.8316262   -2.9310086    1.0095311    1.2213895    5548.0573            0 
 4601000   -4.7443823    1.8186214   -2.9257609    1.0779229    1.2127175    5548.0573    1.5343064 
 4602000   -4.7481278    1.8201481   -2.9279797    1.0585508    1.2137355    5548.0573    2.8934808 
 4603000   -4.7268323     1.828392   -2.8984403    1.2014539    1.2192328    5548.0573    4.1359801 
 4604000   -4.7252219    1.8248876   -2.9003343    1.1832995     1.216896    5548.0573    5.3739358 
 4605000   -4.7526505    1.8364044   -2.9162461     1.089504    1.2245757    5548.0573    6.9034877 
 4606000   -4.7376085    1.8079528   -2.9296557    1.1778644    1.2056033    5548.0573    8.2160075 
 4607000   -4.7479248    1.8229259   -2.9249989    1.0755104    1.2155878    5548.0573    9.3050318 
 4608000   -4.7333147    1.8292693   -2.9040454    1.1412103    1.2198178    5548.0573    10.475059 
 4609000   -4.7265349    1.8233723   -2.9031626    1.2332191    1.2158855    5548.0573    11.702674 
 4610000   -4.7436561    1.8108942    -2.932762    1.1104207    1.2075647    5548.0573    13.149771 
 4611000   -4.7579504    1.8272427   -2.9307077    1.0321506    1.2184664    5548.0573    14.407722 
 4612000   -4.7599397    1.8042665   -2.9556732    1.0251716    1.2031451    5548.0573    15.379667 
 4613000   -4.7603132    1.7959255   -2.9643877   0.99370296     1.197583    5548.0573    16.526001 
 4614000   -4.7568681    1.8265515   -2.9303166    1.0684177    1.2180055    5548.0573    17.682806 
 4615000   -4.7590603     1.821835   -2.9372254   0.99243289    1.2148604    5548.0573    19.100474 
 4616000   -4.7518004    1.8103129   -2.9414875    1.0697866    1.2071771    5548.0573    20.353573 
 4617000   -4.7203818    1.7875997   -2.9327821    1.1831503    1.1920311    5548.0573    21.425297 
 4618000   -4.7573558    1.8300216   -2.9273342    1.0326221    1.2203195    5548.0573    22.626401 
 4619000    -4.740585    1.7901373   -2.9504476    1.0921901    1.1937233    5548.0573    24.004516 
 4620000   -4.7444446    1.7522368   -2.9922078    1.0337963      1.16845    5548.0573    25.479652 
 4621000   -4.7832814    1.8082168   -2.9750646   0.94084021    1.2057793    5548.0573    27.085781 
 4622000   -4.7387348    1.7650179   -2.9737169    1.1169568    1.1769728    5548.0573    28.840592 
 4623000   -4.7617272    1.7804538   -2.9812734   0.99908186     1.187266    5548.0573    30.170828 
 4624000   -4.7558417    1.7530737    -3.002768   0.98271801     1.169008    5548.0573      31.3005 
 4625000     -4.77614    1.8027295   -2.9734104   0.93949234    1.2021202    5548.0573    32.064913 
 4626000   -4.7734884     1.774614   -2.9988743   0.95171545    1.1833719    5548.0573    33.335737 
 4627000   -4.7572746    1.7959987   -2.9612759    1.0393623    1.1976319    5548.0573    34.670116 
 4628000   -4.7595522    1.8093526   -2.9501995    1.0282357    1.2065367    5548.0573    35.667055 
 4629000   -4.7575597     1.818319   -2.9392407    1.0451427    1.2125158    5548.0573    37.018515 
 4630000    -4.758395    1.8270408   -2.9313543     1.086693    1.2183318    5548.0573    38.196126 
 4631000   -4.7580236    1.8122394   -2.9457842    1.0899107    1.2084617    5548.0573    39.213024 
 4632000   -4.7357554    1.8082622   -2.9274932    1.1586985    1.2058096    5548.0573    40.291782 
 4633000   -4.7413057    1.7652491   -2.9760566    1.0357425     1.177127    5548.0573    41.558995 
 4634000   -4.7614929    1.8008705   -2.9606224   0.99246499    1.2008805    5548.0573     43.13163 
 4635000   -4.7522596    1.7878963   -2.9643633    1.0269702    1.1922289    5548.0573    44.515791 
 4636000   -4.7685732    1.8136153   -2.9549579    1.0140824    1.2093792    5548.0573    45.567592 
 4637000   -4.7396824    1.8273118   -2.9123706    1.1719887    1.2185125    5548.0573     46.95601 
 4638000   -4.7246167    1.8037106   -2.9209062    1.1234353    1.2027744    5548.0573    48.350187 
 4639000   -4.7200581    1.8398044   -2.8802537    1.1984457     1.226843    5548.0573    49.614561 
 4640000   -4.7372574    1.7744169   -2.9628406    1.1138042    1.1832404    5548.0573    50.593196 
 4641000   -4.7688333    1.8061238   -2.9627096    1.0203293    1.2043836    5548.0573     52.01472 
 4642000   -4.7596034    1.7684657   -2.9911377    1.0067279    1.1792719    5548.0573    53.073736 
 4643000   -4.7400439    1.7747068   -2.9653371    1.0884331    1.1834337    5548.0573    54.568496 
 4644000   -4.7703851    1.7974398   -2.9729453   0.99491707    1.1985928    5548.0573     55.83499 
 4645000   -4.7351928    1.8084022   -2.9267906    1.1531404     1.205903    5548.0573    57.240382 
 4646000    -4.728106    1.8145649   -2.9135411     1.185743    1.2100124    5548.0573    58.635984 
 4647000   -4.7532255    1.8518487   -2.9013768     1.075798    1.2348745    5548.0573    60.218639 
 4648000   -4.7391497    1.8151621   -2.9239876    1.1148981    1.2104107    5548.0573    61.592181 
 4649000   -4.7692406    1.8352043   -2.9340363   0.99465759    1.2237755    5548.0573    63.347574 
 4650000   -4.7380252    1.8152613   -2.9227639    1.1534748    1.2104768    5548.0573    64.684241 
 4651000   -4.7515069    1.8316158   -2.9198911    1.1106635    1.2213826    5548.0573    65.595315 
 4652000   -4.7651457    1.8226314   -2.9425143    1.0181617    1.2153914    5548.0573    66.792265 
 4653000   -4.7581552    1.7807908   -2.9773644    1.0687831    1.1874907    5548.0573    68.075725 
 4654000   -4.7565397    1.7751858   -2.9813539    1.0263878    1.1837531    5548.0573    69.811252 
 4655000   -4.7663914    1.7634636   -3.0029277    1.0007136    1.1759364    5548.0573    70.838189 
 4656000   -4.7591886    1.7867211   -2.9724676     1.099152    1.1914452    5548.0573    72.014006 
 4657000   -4.7481106    1.7852707   -2.9628399    1.0782533    1.1904781    5548.0573    73.154249 
 4658000   -4.7512113    1.7855689   -2.9656424    1.0580261     1.190677    5548.0573    74.528078 
 4659000   -4.7630777    1.7899584   -2.9731193   0.99812693     1.193604    5548.0573    76.031661 
 4660000    -4.749541     1.767284   -2.9822571    1.0759223    1.1784839    5548.0573     77.17113 
 4661000   -4.7258267    1.7728959   -2.9529308    1.1467027    1.1822261    5548.0573    78.284675 
 4662000   -4.7589789    1.8416508    -2.917328    1.0391427    1.2280742    5548.0573    79.186862 
 4663000   -4.7517691    1.8485623   -2.9032069    1.0175984     1.232683    5548.0573    80.444799 
 4664000   -4.7422492    1.8434809   -2.8987683    1.1280798    1.2292946    5548.0573    81.890699 
 4665000   -4.7587449    1.8224005   -2.9363444     1.066585    1.2152375    5548.0573    83.784771 
 4666000   -4.7405615    1.8328593   -2.9077022    1.1073932    1.2222118    5548.0573    85.341308 
 4667000   -4.7645703     1.811393   -2.9531773    1.0210627    1.2078973    5548.0573    86.888039 
 4668000   -4.7817623    1.8298692   -2.9518932    0.9613024    1.2202178    5548.0573    88.126176 
 4669000   -4.7571244     1.803962   -2.9531624    1.0715305    1.2029421    5548.0573     89.43799 
 4670000   -4.7529065    1.7628779   -2.9900285    1.0619765    1.1755458    5548.0573    91.144345 
 4671000   -4.7518572    1.7784876   -2.9733696    1.0779097    1.1859549    5548.0573    93.374942 
 4672000    -4.754639    1.7861679   -2.9684711    1.0111068    1.1910763    5548.0573    94.284306 
 4673000   -4.7424724    1.7704626   -2.9720098    1.0659001    1.1806036    5548.0573    95.464672 
 4674000   -4.7843633    1.7834624   -3.0009009   0.91522278    1.1892723    5548.0573    96.439475 
 4675000   -4.7640876    1.7818259   -2.9822618    1.0740234     1.188181    5548.0573    97.599014 
 4676000   -4.7547305    1.7923975    -2.962333    1.0644682    1.1952305    5548.0573     98.96874 
 4677000   -4.7431367    1.7654546   -2.9776822    1.0641427     1.177264    5548.0573    100.37337 
 4678000   -4.7776249    1.7679182   -3.0097067    0.9578362    1.1789069    5548.0573    101.19374 
 4679000   -4.7665253      1.78706   -2.9794653   0.97759751    1.1916712    5548.0573    102.43545 
 4680000   -4.7697283     1.798571   -2.9711573   0.99725711    1.1993471    5548.0573    103.23996 
 4681000   -4.7407345    1.7997428   -2.9409917    1.1387203    1.2001286    5548.0573    104.18741 
 4682000   -4.7327163    1.7873914   -2.9453249    1.0841473    1.1918922    5548.0573     104.9809 
 4683000   -4.7373073    1.8152035   -2.9221039    1.1331392    1.2104382    5548.0573    106.14201 
 4684000   -4.7374958    1.8340343   -2.9034615    1.1366732    1.2229953    5548.0573     107.2746 
 4685000   -4.7383542    1.8208177   -2.9175365    1.1419141     1.214182    5548.0573    108.37603 
 4686000   -4.7666453    1.8482688   -2.9183765    1.0087655    1.2324873    5548.0573    109.55296 
 4687000   -4.7372768    1.7870401   -2.9502367    1.1115884     1.191658    5548.0573    111.03397 
 4688000   -4.7398205    1.7910914   -2.9487291    1.1257838    1.1943596    5548.0573    112.39883 
 4689000   -4.7371141    1.8069353   -2.9301788    1.1750511    1.2049248    5548.0573    113.76488 
 4690000   -4.7304849    1.8069168   -2.9235681    1.1722991    1.2049124    5548.0573    114.74303 
 4691000   -4.7494914    1.7730638   -2.9764275    1.0331512    1.1823381    5548.0573    116.04187 
 4692000   -4.7603542    1.7969059   -2.9634483    0.9776158    1.1982368    5548.0573    117.30365 
 4693000   -4.7597654    1.7763261   -2.9834394    1.0026855    1.1845135    5548.0573    117.99942 
 4694000   -4.7384279    1.8071546   -2.9312733    1.1014622     1.205071    5548.0573    119.47038 
 4695000   -4.7647909    1.8155735   -2.9492174    1.0449888     1.210685    5548.0573    120.59026 
 4696000   -4.7885424    1.7464858   -3.0420566    0.8824715     1.164615    5548.0573     122.2435 
 4697000   -4.7234877    1.7720202   -2.9514676    1.1711844    1.1816422    5548.0573    123.23014 
 4698000   -4.7391588    1.8000013   -2.9391575    1.1095234    1.2003009    5548.0573    124.66417 
 4699000   -4.7334237    1.8154466   -2.9179771    1.1470236    1.2106004    5548.0573    125.98925 
 4700000   -4.7346909    1.8614856   -2.8732053    1.1266158    1.2413007    5548.0573    127.33462 
 4701000   -4.7356414    1.8101065    -2.925535    1.1592195    1.2070394    5548.0573    128.30145 
 4702000   -4.7417407    1.8175058   -2.9242349    1.0868832    1.2119735    5548.0573    129.67797 
 4703000   -4.7592465    1.8152769   -2.9439695    1.0342887    1.2104873    5548.0573    130.64128 
 4704000   -4.7427031    1.7911637   -2.9515394    1.0944038    1.1944077    5548.0573    131.54963 
 4705000   -4.7769964    1.7980921   -2.9789043   0.92006615    1.1990279    5548.0573    132.00895 
 4706000   -4.7779085    1.8162755    -2.961633   0.97239424    1.2111531    5548.0573    132.71254 
 4707000   -4.7635246    1.8065158   -2.9570089    1.0172113     1.204645    5548.0573    133.70247 
 4708000   -4.7563764    1.7766092   -2.9797672    1.0616593    1.1847023    5548.0573    134.65713 
 4709000    -4.760781    1.8079181   -2.9528629    1.0223453    1.2055801    5548.0573    135.97894 
 4710000   -4.7589216     1.779712   -2.9792096    1.0306947    1.1867714    5548.0573    137.20783 
 4711000   -4.7542623    1.7795582   -2.9747041    1.0393101    1.1866688    5548.0573    138.43057 
 4712000   -4.7408913    1.7951744   -2.9457168    1.1359024    1.1970822    5548.0573     140.0846 
 4713000   -4.7645213    1.7996409   -2.9648803   0.98676462    1.2000606    5548.0573    142.00316 
 4714000   -4.7885927    1.8023476    -2.986245   0.88877818    1.2018656    5548.0573    143.95394 
 4715000   -4.7592989     1.743085    -3.016214    0.9962744    1.1623472    5548.0573    145.57622 
 4716000   -4.7517647    1.7583373   -2.9934273    1.0240134     1.172518    5548.0573    147.02225 
 4717000   -4.7752193    1.7867308   -2.9884886   0.94502171    1.1914517    5548.0573    148.49432 
 4718000   -4.7533022    1.7885885   -2.9647138    1.0497165    1.1926905    5548.0573    150.42993 
 4719000   -4.7479756    1.7963504   -2.9516252    1.1026622    1.1978664    5548.0573    151.72637 
 4720000   -4.7452991    1.7917487   -2.9535504     1.088802    1.1947978    5548.0573    152.51035 
 4721000   -4.7510895    1.8115946   -2.9394949     1.065628    1.2080318    5548.0573     153.7418 
 4722000    -4.753883    1.8331466   -2.9207364    1.0716915    1.2224033    5548.0573    155.20242 
 4723000   -4.7554159    1.8118536   -2.9435623    1.0303767    1.2082044    5548.0573    156.05255 
 4724000   -4.7714111    1.8065625   -2.9648486   0.98974916    1.2046761    5548.0573    157.07661 
 4725000   -4.7719782    1.8060642   -2.9659139   0.98010798    1.2043439    5548.0573    158.16628 
 4726000   -4.7587802    1.7749841   -2.9837961     1.019964    1.1836186    5548.0573    159.42133 
 4727000   -4.7408597    1.7735494   -2.9673103    1.1206431     1.182662    5548.0573    160.57198 
 4728000   -4.7651493    1.8082287   -2.9569206    1.0111007    1.2057872    5548.0573    162.43166 
 4729000   -4.7624419    1.8016759   -2.9607661   0.98439899    1.2014176    5548.0573    163.40196 
 4730000   -4.7333971    1.7901103   -2.9432867    1.1291768    1.1937053    5548.0573    164.83317 
 4731000   -4.7609648     1.821426   -2.9395388    1.0596762    1.2145877    5548.0573    164.80682 
 4732000   -4.7445673    1.7940798   -2.9504875    1.0651525    1.1963523    5548.0573    164.32858 
 4733000   -4.7759974      1.76844   -3.0075574   0.97025133    1.1792548    5548.0573    165.84801 
 4734000   -4.7902503    1.7826035   -3.0076468   0.92575856    1.1886995    5548.0573    167.95786 
 4735000   -4.7474452    1.7702541   -2.9771911    1.0812906    1.1804645    5548.0573    168.67873 
 4736000   -4.7692537    1.7835713   -2.9856824   0.98460667    1.1893449    5548.0573    169.64065 
 4737000   -4.7580894    1.8115842   -2.9465053   0.99753064    1.2080248    5548.0573    170.87999 
 4738000   -4.7359914    1.8044681   -2.9315233    1.0870058    1.2032796    5548.0573    171.32604 
 4739000   -4.7360855    1.7935534   -2.9425322    1.1094686    1.1960012    5548.0573    172.39779 
 4740000   -4.7441043     1.798509   -2.9455953    1.1425931    1.1993059    5548.0573    173.70531 
 4741000   -4.7794456    1.7628448   -3.0166009   0.90986149    1.1755237    5548.0573      175.114 
 4742000   -4.7757697    1.7668929   -3.0088768   0.95512783    1.1782232    5548.0573    176.03193 
 4743000   -4.7748172    1.7847623   -2.9900549   0.96190488     1.190139    5548.0573    176.41111 
 4744000    -4.756476    1.7814721   -2.9750039    1.0176451     1.187945    5548.0573    176.45452 
 4745000   -4.7571186    1.7856712   -2.9714474    1.0554566    1.1907452    5548.0573    178.25788 
 4746000   -4.7465148     1.782904   -2.9636109    1.0896883    1.1888999    5548.0573     178.8891 
 4747000   -4.7378031    1.7970524   -2.9407506    1.1044146    1.1983345    5548.0573     180.2643 
 4748000   -4.7440604    1.8313521   -2.9127083    1.0844029    1.2212067    5548.0573     182.1215 
 4749000   -4.7347816     1.804442   -2.9303396    1.1244776    1.2032622    5548.0573    183.06978 
 4750000   -4.7831664    1.8070304    -2.976136   0.97920493    1.2049882    5548.0573    184.01991 
 4751000    -4.753322    1.8015288   -2.9517932    1.0775792    1.2013195    5548.0573    185.03017 
 4752000   -4.7289669    1.7919779   -2.9369891    1.1613706    1.1949506    5548.0573     186.0861 
 4753000   -4.7503833    1.8082423    -2.942141    1.0376323    1.2057963    5548.0573    187.71556 
 4754000   -4.7041541    1.7765707   -2.9275834    1.2654611    1.1846766    5548.0573    188.60755 
 4755000   -4.7283244    1.8238373    -2.904487    1.1814917    1.2161956    5548.0573    190.39688 
 4756000     -4.75214    1.8431432   -2.9089969    1.1681776    1.2290694    5548.0573    191.56931 
 4757000   -4.7577692    1.8399396   -2.9178296    1.0259703    1.2269331    5548.0573    192.78149 
 4758000   -4.7509937    1.8192725   -2.9317212    1.0928671    1.2131516    5548.0573    194.53951 
 4759000   -4.7599815     1.846449   -2.9135325    1.0210977    1.2312738    5548.0573    196.03438 
 4760000   -4.7161158    1.8178217   -2.8982941    1.2451246    1.2121842    5548.0573    197.80972 
 4761000    -4.747738     1.823197    -2.924541    1.0771457    1.2157686    5548.0573    200.02904 
 4762000   -4.7573995    1.8085609   -2.9488386    1.0323279    1.2060088    5548.0573    200.64639 
 4763000   -4.7606984    1.7905651   -2.9701334     1.055235    1.1940085    5548.0573    201.99611 
 4764000   -4.7839934    1.7930931   -2.9909004   0.90516661    1.1956943    5548.0573    203.68286 
 4765000   -4.7615609    1.8008711   -2.9606899    1.0660117    1.2008809    5548.0573    204.94511 
 4766000   -4.7744757    1.8175775   -2.9568982   0.96913845    1.2120214    5548.0573     206.2215 
 4767000   -4.7435218    1.7985166   -2.9450052    1.0797254    1.1993109    5548.0573    207.36179 
 4768000   -4.7627417      1.82849   -2.9342517    1.0291959    1.2192982    5548.0573    208.23156 
 4769000   -4.7459974     1.837473   -2.9085244    1.0871289    1.2252883    5548.0573    210.09359 
 4770000   -4.7545546    1.8189665    -2.935588    1.0500109    1.2129476    5548.0573    211.94471 
 4771000   -4.7526969    1.8179691   -2.9347278    1.0589676    1.2122825    5548.0573    213.55089 
 4772000   -4.7587316    1.8145415   -2.9441901    1.0327903    1.2099969    5548.0573    214.89358 
 4773000   -4.7624154    1.8408162   -2.9215992    1.0715483    1.2275177    5548.0573    215.18088 
 4774000   -4.7486598    1.8354552   -2.9132046    1.1185975    1.2239428    5548.0573    216.18488 
 4775000   -4.7528026    1.7666063   -2.9861963    1.0313098     1.178032    5548.0573    217.79477 
 4776000    -4.750123    1.7977687   -2.9523543    1.1026791    1.1988122    5548.0573    219.39591 
 4777000   -4.7624415    1.8023763   -2.9600652    0.9889895    1.2018847    5548.0573    220.87224 
 4778000   -4.7441022    1.7845461    -2.959556    1.0908273    1.1899949    5548.0573    220.64195 
 4779000   -4.7516864    1.7518582   -2.9998281    1.0320377    1.1681975    5548.0573    221.90281 
 4780000   -4.7612778    1.7521845   -3.0090933    1.0086871    1.1684151    5548.0573    223.36871 
 4781000   -4.7619691    1.7911059   -2.9708632    1.0101504    1.1943692    5548.0573    224.22274 
 4782000   -4.7280249    1.7586623   -2.9693627    1.1475502    1.1727347    5548.0573    225.34296 
 4783000   -4.7659569    1.8013811   -2.9645758    1.0266032    1.2012211    5548.0573      226.947 
 4784000   -4.7706217    1.7881207    -2.982501   0.98212183    1.1923785    5548.0573    228.49448 
 4785000   -4.7741848    1.7690655   -3.0051193   0.98090069    1.1796719    5548.0573    229.34718 
 4786000   -4.7420453    1.7536267   -2.9884187    1.0738358    1.1693768    5548.0573    230.53489 
 4787000   -4.7733778    1.7971972   -2.9761806    0.9747577    1.1984311    5548.0573     231.2309 
 4788000   -4.7553001    1.7948601     -2.96044    1.0417036    1.1968726    5548.0573     232.6621 
 4789000    -4.733483    1.7707749   -2.9627081    1.0902707    1.1808118    5548.0573    233.50047 
 4790000   -4.7578152    1.7904892   -2.9673259    1.0870504     1.193958    5548.0573    233.49118 
 4791000   -4.7524936    1.7896263   -2.9628673    1.0823235    1.1933825    5548.0573     235.5315 
 4792000   -4.7504637     1.799002   -2.9514617    1.0870619    1.1996346    5548.0573    236.60065 
 4793000   -4.7260413    1.7787501   -2.9472912    1.1697291    1.1861299    5548.0573     239.1677 
 4794000   -4.7534965    1.8098909   -2.9436056    1.1060664    1.2068956    5548.0573    240.04449 
 4795000   -4.7664704    1.7964477   -2.9700228   0.97414308    1.1979313    5548.0573    241.73833 
 4796000   -4.7814828    1.8097389   -2.9717439   0.95862351    1.2067943    5548.0573    242.13802 
 4797000    -4.746487    1.7649726   -2.9815145    1.0680464    1.1769426    5548.0573    243.83584 
 4798000   -4.7313287    1.7670581   -2.9642706    1.1843971    1.1783333    5548.0573    246.66924 
 4799000   -4.7569797    1.8140784   -2.9429013    1.0140056     1.209688    5548.0573     247.5093 
 4800000   -4.7557992    1.8176598   -2.9381394    1.0410963    1.2120762    5548.0573    249.39379 
 4801000   -4.7437533    1.8292728   -2.9144805    1.0885506    1.2198201    5548.0573    251.09975 
 4802000   -4.7252943    1.8339216   -2.8913728    1.1906955    1.2229201    5548.0573    253.17667 
 4803000   -4.7191556    1.8010239   -2.9181317    1.1693494    1.2009828    5548.0573    255.20395 
 4804000   -4.7385264     1.808444   -2.9300825     1.128246    1.2059308    5548.0573    256.97858 
 4805000   -4.7498485    1.8050618   -2.9447867     1.069821    1.2036754    5548.0573    258.86647 
 4806000    -4.748515    1.8226971   -2.9258179     1.104253    1.2154353    5548.0573    261.18584 
 4807000   -4.7575759    1.7947197   -2.9628562    1.0179806     1.196779    5548.0573    264.23042 
 4808000   -4.7639555    1.7956005   -2.9683549    1.0262174    1.1973664    5548.0573     265.2419 
 4809000   -4.7546636     1.796427   -2.9582366    1.0773876    1.1979175    5548.0573    266.16714 
 4810000   -4.7049081    1.8169589   -2.8879492    1.3463361    1.2116089    5548.0573    268.39694 
 4811000   -4.7365076    1.8051268   -2.9313807     1.124956    1.2037188    5548.0573    269.05076 
 4812000   -4.7493105    1.8013149   -2.9479955     1.086273    1.2011769    5548.0573    270.18148 
 4813000   -4.7396276    1.7935294   -2.9460983    1.0944164    1.1959852    5548.0573    270.60666 
 4814000    -4.757787    1.8075936   -2.9501934     1.018241    1.2053637    5548.0573      272.154 
 4815000   -4.7655595    1.7963484   -2.9692111   0.99444553    1.1978651    5548.0573    273.32137 
 4816000   -4.7600853    1.7966341   -2.9634511    1.0212747    1.1980556    5548.0573     275.9153 
 4817000   -4.7545569    1.7624899   -2.9920669    1.0362882    1.1752871    5548.0573    276.86385 
 4818000   -4.7722578     1.768689   -3.0035687    1.0245895    1.1794209    5548.0573    278.29224 
 4819000   -4.7760779    1.7963248    -2.979753   0.96431551    1.1978494    5548.0573    279.22144 
 4820000   -4.7528601    1.7915862   -2.9612739    1.0273726    1.1946895    5548.0573    280.35606 
 4821000   -4.7563093    1.7898626   -2.9664467    1.0701985    1.1935401    5548.0573    281.22965 
 4822000   -4.7605999    1.7893182   -2.9712817    1.0112957    1.1931771    5548.0573    282.33003 
 4823000   -4.7571539     1.777517   -2.9796369    1.0301355    1.1853077    5548.0573     282.7356 
 4824000   -4.7475515    1.7848568   -2.9626947    1.0835637    1.1902021    5548.0573     284.0386 
 4825000   -4.7732879    1.7921342   -2.9811536   0.97540142    1.1950549    5548.0573    284.74927 
 4826000   -4.7828685    1.8027186   -2.9801499   0.96211474    1.2021129    5548.0573    285.72647 
 4827000   -4.7695957    1.8211034   -2.9484923     1.009812    1.2143725    5548.0573    287.15179 
 4828000   -4.7752192    1.8205744   -2.9546448   0.95962455    1.2140198    5548.0573    287.49875 
 4829000   -4.7537079      1.79706   -2.9566479    1.0597831    1.1983396    5548.0573    288.84135 
 4830000   -4.7527692    1.8653688   -2.8874004    1.0946387    1.2438902    5548.0573     290.0624 
 4831000   -4.7644758    1.8585281   -2.9059477     1.037788    1.2393286    5548.0573    291.97399 
 4832000   -4.7026534    1.7749934     -2.92766    1.2177491    1.1836249    5548.0573    293.35497 
 4833000   -4.7192004    1.7882548   -2.9309457    1.1748887     1.192468    5548.0573    296.00098 
 4834000   -4.7748683    1.8197897   -2.9550786    1.0014111    1.2134965    5548.0573    297.78116 
 4835000   -4.7573547    1.7903657    -2.966989    1.0723909    1.1938756    5548.0573    298.10594 
 4836000    -4.741775    1.7874181   -2.9543569    1.0947733      1.19191    5548.0573    298.63675 
 4837000   -4.7701421    1.8051645   -2.9649777   0.96743058    1.2037439    5548.0573    299.69874 
 4838000   -4.7480165    1.7639043   -2.9841122    1.0541886    1.1762303    5548.0573    301.46205 
 4839000   -4.7770613    1.7985776   -2.9784837    0.9251175    1.1993516    5548.0573    303.62617 
 4840000   -4.7865085     1.785967   -3.0005415   0.91789146    1.1909424    5548.0573    305.10383 
 4841000   -4.7681464    1.8047849   -2.9633616     1.004903    1.2034908    5548.0573    304.95008 
 4842000   -4.7222712    1.7767594   -2.9455119    1.2127284    1.1848024    5548.0573     306.4102 
 4843000   -4.7605509    1.8231432   -2.9374077   0.99269216    1.2157327    5548.0573    308.22984 
 4844000   -4.7373117    1.7904792   -2.9468325     1.108866    1.1939513    5548.0573    308.32206 
 4845000   -4.7334879    1.8069169   -2.9265711     1.173352    1.2049125    5548.0573    310.32299 
 4846000   -4.7322186    1.8347368   -2.8974818    1.2073042    1.2234638    5548.0573    311.25577 
 4847000   -4.7445626    1.8084454   -2.9361171    1.0947954    1.2059318    5548.0573    311.63956 
 4848000   -4.7638756    1.8252172   -2.9386584   0.98561984    1.2171157    5548.0573    313.45896 
 4849000   -4.7512179    1.8071195   -2.9440984    1.0491562    1.2050476    5548.0573    314.52905 
 4850000   -4.7354828    1.8025254   -2.9329574    1.1796469    1.2019841    5548.0573    316.17102 
 4851000   -4.7490106     1.812299   -2.9367116    1.0897468    1.2085015    5548.0573    317.61555 
 4852000   -4.7540202    1.7911074   -2.9629128    1.0373541    1.1943702    5548.0573    318.90197 
 4853000   -4.7552267    1.8040657    -2.951161    1.0530134    1.2030112    5548.0573    320.46496 
 4854000   -4.7432941    1.7538864   -2.9894077    1.0453541      1.16955    5548.0573    322.16667 
 4855000   -4.7449018    1.7760157   -2.9688861    1.0968945    1.1843065    5548.0573     322.0157 
 4856000   -4.7686948    1.7978329   -2.9708618   0.99295656     1.198855    5548.0573    322.72027 
 4857000   -4.7381328    1.8075655   -2.9305673    1.1144001     1.205345    5548.0573    323.12415 
 4858000   -4.7427782    1.7705505   -2.9722277    1.1143796    1.1806622    5548.0573    325.00479 
 4859000   -4.7805034    1.8073063   -2.9731971   0.92157952    1.2051722    5548.0573    326.93151 
 4860000    -4.742193    1.8059767   -2.9362162    1.0986274    1.2042856    5548.0573    328.08019 
 4861000   -4.7539603    1.8322709   -2.9216894    1.0686135    1.2218194    5548.0573    330.43021 
 4862000   -4.7301296    1.8173793   -2.9127503    1.2033419    1.2118892    5548.0573    330.96458 
 4863000   -4.7339855    1.8350814   -2.8989042    1.1161794    1.2236935    5548.0573    332.63808 
 4864000    -4.733533    1.8361206   -2.8974124    1.1385908    1.2243865    5548.0573    333.22928 
 4865000   -4.7593728    1.8181866   -2.9411863    1.0989096    1.2124275    5548.0573    333.86386 
 4866000   -4.7640842    1.8303307   -2.9337536    1.0277825    1.2205256    5548.0573     335.8445 
 4867000   -4.7566205    1.8255601   -2.9310603    1.0708132    1.2173444    5548.0573    337.34123 
 4868000   -4.7472809    1.8389005   -2.9083804    1.0935185    1.2262402    5548.0573    338.78699 
 4869000   -4.7397057    1.7995957     -2.94011    1.1044796    1.2000305    5548.0573    339.79185 
 4870000    -4.756205    1.8058207   -2.9503843    1.0540461    1.2041815    5548.0573    341.73534 
 4871000   -4.7565391    1.7771229   -2.9794162    1.0593772    1.1850449    5548.0573    342.54184 
 4872000   -4.7560878    1.7677253   -2.9883626    1.0237031    1.1787782    5548.0573    343.74436 
 4873000   -4.7536793    1.7658378   -2.9878415    1.0304436    1.1775196    5548.0573    344.30944 
 4874000   -4.7755504    1.8267505      -2.9488   0.97044563    1.2181382    5548.0573    344.66666 
 4875000   -4.7435231    1.7672919   -2.9762311    1.0348179    1.1784893    5548.0573    345.50668 
 4876000   -4.7608511    1.8111016   -2.9497494    1.0973606     1.207703    5548.0573    345.09115 
 4877000   -4.7434358    1.7869781   -2.9564577    1.0704282    1.1916166    5548.0573    346.48762 
 4878000   -4.7578368    1.7913328    -2.966504    1.0496007    1.1945205    5548.0573    348.09093 
 4879000   -4.7453912    1.7716752   -2.9737159    1.0976839    1.1814122    5548.0573    347.68579 
 4880000   -4.7848807    1.8126201   -2.9722606   0.89289681    1.2087156    5548.0573    349.46316 
 4881000   -4.7461906     1.779683   -2.9665076    1.0553009     1.186752    5548.0573    351.03872 
 4882000   -4.7461142    1.7600367   -2.9860775    1.0666538    1.1736512    5548.0573    352.25175 
 4883000   -4.7967767    1.7851383   -3.0116384   0.89425262    1.1903898    5548.0573    352.40897 
 4884000   -4.7423755    1.7815164   -2.9608591    1.1514035    1.1879746    5548.0573    353.77164 
 4885000   -4.7593943    1.8018349   -2.9575594    1.0187332    1.2015236    5548.0573    355.15729 
 4886000   -4.7618963    1.7864058   -2.9754905    1.0663574     1.191235    5548.0573    356.10274 
 4887000   -4.7679017    1.7765968   -2.9913048   0.99228938    1.1846941    5548.0573    357.43582 
 4888000   -4.7596492    1.7970345   -2.9626147    1.0672437    1.1983226    5548.0573    359.62133 
 4889000   -4.7409178    1.8247827   -2.9161351    1.1409219     1.216826    5548.0573    361.38997 
 4890000   -4.7414078    1.8259746   -2.9154333    1.0542733    1.2176208    5548.0573    361.63711 
 4891000   -4.7368418     1.798596   -2.9382458    1.1592464    1.1993638    5548.0573    362.39377 
 4892000   -4.7384702    1.7964427   -2.9420276    1.1249061    1.1979279    5548.0573    363.53908 
 4893000   -4.7575895     1.814014   -2.9435755     1.067895    1.2096451    5548.0573    365.61666 
 4894000   -4.7367868    1.7903139   -2.9464729    1.1217776     1.193841    5548.0573     365.7601 
 4895000   -4.7690424    1.7970935   -2.9719489   0.99977169    1.1983619    5548.0573    366.98531 
 4896000   -4.7553629    1.7854595   -2.9699034    1.0567142     1.190604    5548.0573     367.4731 
 4897000    -4.750643     1.788315    -2.962328    1.0689183    1.1925081    5548.0573    369.59404 
 4898000   -4.7653003      1.75985   -3.0054503    0.9887882    1.1735267    5548.0573    370.35449 
 4899000   -4.7685217      1.75917   -3.0093517   0.98264839    1.1730733    5548.0573     371.4773 
 4900000   -4.7557209    1.7688675   -2.9868534     1.036634    1.1795399    5548.0573    372.01276 
 4901000   -4.7345088    1.7572534   -2.9772555    1.1096136    1.1717952    5548.0573    373.58498 
 4902000   -4.7810423    1.8284384   -2.9526039   0.95083614    1.2192638    5548.0573    376.48102 
 4903000   -4.7467525    1.7869547   -2.9597978    1.0957438     1.191601    5548.0573    377.06002 
 4904000   -4.7656295    1.8158799   -2.9497496    1.0533514    1.2108893    5548.0573    377.58294 
 4905000   -4.7424943    1.7998132   -2.9426811    1.0988017    1.2001755    5548.0573    379.27188 
 4906000   -4.7547078    1.8190373   -2.9356705     1.034577    1.2129948    5548.0573    380.20364 
 4907000   -4.7531931    1.8030928   -2.9501003    1.0433457    1.2023624    5548.0573    380.39015 
 4908000   -4.7583721    1.7957102   -2.9626619    1.0543394    1.1974395    5548.0573     381.5863 
 4909000   -4.7398128    1.7741261   -2.9656867    1.0940698    1.1830465    5548.0573    383.09796 
 4910000   -4.7535273    1.7774982   -2.9760291    1.0543156    1.1852951    5548.0573    384.63285 
 4911000   -4.7687127    1.7610568   -3.0076559   0.97913295    1.1743315    5548.0573    385.38495 
 4912000   -4.7448006      1.78647   -2.9583306    1.0905643    1.1912778    5548.0573    387.15508 
 4913000   -4.7636182    1.7959115   -2.9677067   0.98416041    1.1975737    5548.0573    387.31919 
 4914000   -4.7446143    1.7935537   -2.9510605    1.1036879    1.1960015    5548.0573     388.5017 
 4915000   -4.7429733    1.7873658   -2.9556075    1.0646336    1.1918752    5548.0573    388.55507 
 4916000   -4.7390045    1.8076239   -2.9313806    1.1362806    1.2053839    5548.0573    389.83967 
 4917000   -4.7719616    1.8075144   -2.9644472    1.0106618     1.205311    5548.0573    392.61832 
 4918000   -4.7421153    1.7888836   -2.9532317    1.0928187    1.1928873    5548.0573    393.57016 
 4919000   -4.7628707       1.8258   -2.9370707    1.0687578    1.2175044    5548.0573    395.15102 
 4920000   -4.7302101    1.8043314   -2.9258787    1.1209929    1.2031884    5548.0573     396.6645 
 4921000    -4.742802    1.8391456   -2.9036563    1.1219725    1.2264037    5548.0573    398.09489 
 4922000   -4.7575525    1.8231626   -2.9343899    1.0542059    1.2157456    5548.0573    400.30754 
 4923000    -4.741684    1.8177211    -2.923963    1.0934727    1.2121171    5548.0573    402.56487 
 4924000   -4.7461086    1.7910758   -2.9550329     1.100377    1.1943491    5548.0573    403.85452 
 4925000   -4.7650185    1.7788917   -2.9861268   0.98891195    1.1862243    5548.0573    404.54958 
 4926000   -4.7315758    1.7628902   -2.9686855    1.1089077     1.175554    5548.0573     404.8742 
 4927000   -4.7542157    1.7918177    -2.962398    1.0514159    1.1948439    5548.0573    406.56292 
 4928000   -4.7578399    1.7734335   -2.9844064    1.0175053    1.1825846    5548.0573    406.58797 
 4929000   -4.7785274    1.7760476   -3.0024797   0.91672225    1.1843278    5548.0573    407.77949 
 4930000   -4.7509612    1.7658872    -2.985074    1.0319346    1.1775525    5548.0573    408.80533 
 4931000   -4.7808879    1.8302735   -2.9506143   0.94704528    1.2204875    5548.0573    409.58149 
 4932000   -4.7547378    1.7789732   -2.9757646    1.0107171    1.1862787    5548.0573    412.44198 
 4933000   -4.7745334      1.79694   -2.9775935    1.0073563    1.1982595    5548.0573    413.44607 
 4934000   -4.7729284    1.7755648   -2.9973637   0.98015437    1.1840059    5548.0573    413.50401 
 4935000   -4.7685382    1.7768151   -2.9917231   0.95968279    1.1848396    5548.0573    414.10958 
 4936000   -4.7719033    1.8095582   -2.9623451     1.020894    1.2066738    5548.0573    414.47035 
 4937000   -4.7444234    1.7708591   -2.9735643    1.0782183     1.180868    5548.0573    415.58171 
 4938000   -4.7705913    1.7801825   -2.9904089   0.97108303    1.1870851    5548.0573    416.93198 
 4939000   -4.7611692    1.7540161   -3.0071531   0.96623072    1.1696365    5548.0573    417.59046 
 4940000   -4.7609939    1.8028696   -2.9581242    1.0150941    1.2022136    5548.0573    419.71108 
 4941000   -4.7625813    1.8137185   -2.9488628   0.98366863     1.209448    5548.0573    422.66782 
 4942000   -4.7569138    1.8271526   -2.9297612    1.0593747    1.2184063    5548.0573     424.4088 
 4943000   -4.7409464    1.8129129   -2.9280335    1.0880436    1.2089108    5548.0573    425.49919 
 4944000   -4.7311306    1.8421081   -2.8890226    1.1511066    1.2283791    5548.0573    426.95454 
 4945000   -4.7786815    1.8246084   -2.9540732    1.0126879    1.2167098    5548.0573     428.6257 
 4946000   -4.7494483    1.7961861   -2.9532622    1.0709599    1.1977568    5548.0573    431.58927 
 4947000   -4.7416079    1.7750137   -2.9665942    1.1281684    1.1836383    5548.0573    433.03062 
 4948000   -4.7397047    1.7557686   -2.9839361    1.1031982    1.1708051    5548.0573    435.17656 
 4949000   -4.7629343    1.7888641   -2.9740702    1.0166356    1.1928743    5548.0573    436.45707 
 4950000   -4.7618979    1.7882684   -2.9736295    1.0402691     1.192477    5548.0573    438.14787 
 4951000   -4.7595818    1.7604436   -2.9991382   0.97170492    1.1739226    5548.0573    438.61422 
 4952000     -4.75036    1.7643714   -2.9859887    1.0208229    1.1765417    5548.0573    439.15928 
 4953000   -4.7666944    1.7821235   -2.9845709   0.99168056    1.1883794    5548.0573    440.89639 
 4954000   -4.7666825    1.7688754   -2.9978071    1.0127297    1.1795452    5548.0573    442.54298 
 4955000    -4.770179     1.804807    -2.965372    1.0081709    1.2035056    5548.0573    443.78833 
 4956000   -4.7659237     1.784702   -2.9812216    1.0479769    1.1900989    5548.0573    445.06871 
 4957000   -4.7462666    1.7917868   -2.9544798    1.0519578    1.1948232    5548.0573    445.80452 
 4958000   -4.7649492    1.8192032   -2.9457459    1.0148872    1.2131054    5548.0573    446.33757 
 4959000   -4.7188686    1.7731846    -2.945684    1.1763445    1.1824187    5548.0573    446.19736 
 4960000   -4.7567969    1.8019882   -2.9548087    1.0824508    1.2016259    5548.0573    446.46728 
 4961000   -4.7602319    1.8074162   -2.9528157    1.0431929    1.2052454    5548.0573    447.48061 
 4962000      -4.7546    1.7936325   -2.9609675    1.0443982     1.196054    5548.0573    449.26529 
 4963000   -4.7585383    1.8155238   -2.9430145    1.0656968    1.2106519    5548.0573    449.92625 
 4964000   -4.7473117    1.8359853   -2.9113264    1.0766721    1.2242963    5548.0573     452.8484 
 4965000   -4.7597131    1.8333377   -2.9263754    1.0724069    1.2225308    5548.0573    454.19012 
 4966000   -4.7651274    1.8292118   -2.9359156    1.0724269    1.2197794    5548.0573    455.42884 
 4967000   -4.7504236    1.7951485   -2.9552751    1.0430307    1.1970649    5548.0573    457.86696 
 4968000   -4.7403591    1.7957166   -2.9446426    1.1182891    1.1974437    5548.0573    457.50123 
 4969000   -4.7595536    1.8050008   -2.9545528    1.0659328    1.2036348    5548.0573    459.13274 
 4970000   -4.7455689    1.7931395   -2.9524294    1.0574688    1.1957253    5548.0573    460.36785 
 4971000   -4.7565453     1.830801   -2.9257443     1.032623    1.2208392    5548.0573    462.50923 
 4972000   -4.7463594    1.8252414    -2.921118     1.094239    1.2171319    5548.0573    464.67387 
 4973000   -4.7749104    1.8039512   -2.9709592   0.99643301    1.2029348    5548.0573    464.99562 
 4974000   -4.7689414    1.8088716   -2.9600699    1.0042943    1.2062159    5548.0573    467.02116 
 4975000   -4.7626428    1.7957742   -2.9668686    1.0151868    1.1974822    5548.0573    469.54382 
 4976000   -4.7527435    1.8443715    -2.908372    1.0759624    1.2298885    5548.0573    470.73309 
 4977000   -4.7343236    1.8191108   -2.9152127    1.1499672    1.2130438    5548.0573    473.23302 
 4978000    -4.732438    1.7967384   -2.9356996    1.1300445    1.1981251    5548.0573    476.13037 
 4979000   -4.7484615    1.8043311   -2.9441304    1.0624089    1.2031882    5548.0573    477.84366 
 4980000    -4.743175    1.7924411   -2.9507338    1.0973698    1.1952596    5548.0573    480.46577 
 4981000   -4.7626504    1.8105627   -2.9520877    1.0210056    1.2073436    5548.0573     480.9984 
 4982000   -4.7555198    1.8018414   -2.9536784    1.0436459     1.201528    5548.0573    482.14768 
 4983000    -4.758221    1.7970428   -2.9611782    1.0370277    1.1983281    5548.0573    483.60052 
 4984000   -4.7660938    1.7984658    -2.967628    1.0094131     1.199277    5548.0573     484.4244 
 4985000    -4.746508     1.788973    -2.957535    1.0312665    1.1929469    5548.0573    485.21573 
 4986000   -4.7489021    1.8074806   -2.9414214    1.1330193    1.2052884    5548.0573    485.92614 
 4987000   -4.7539724    1.8174679   -2.9365045    1.0526243    1.2119483    5548.0573    488.26517 
 4988000   -4.7559301    1.7897535   -2.9661766    1.0356514    1.1934673    5548.0573     490.2434 
 4989000   -4.7499042    1.7784003   -2.9715039    1.0401493    1.1858967    5548.0573    491.96447 
 4990000   -4.7655954    1.7251386   -3.0404568   0.96194149      1.15038    5548.0573    494.41532 
 4991000   -4.7388062    1.7891214   -2.9496848    1.1046496    1.1930459    5548.0573    497.04328 
 4992000   -4.7397487    1.8202631   -2.9194855    1.0832872    1.2138122    5548.0573    498.77108 
 4993000   -4.7589635    1.8169962   -2.9419673    1.0586635    1.2116337    5548.0573     501.6424 
 4994000   -4.7422669    1.7899293   -2.9523376    1.1031653    1.1935846    5548.0573    503.86789 
 4995000   -4.7581019    1.7446393   -3.0134626    1.0284055    1.1633837    5548.0573    505.21141 
 4996000   -4.7756254    1.7833587   -2.9922668   0.96524328    1.1892031    5548.0573    505.34868 
 4997000   -4.7578991    1.7780274   -2.9798717    1.0144029     1.185648    5548.0573    505.17741 
 4998000   -4.7719568    1.8053051   -2.9666518    1.0423538    1.2038377    5548.0573    505.13144 
 4999000    -4.751171    1.7918178   -2.9593533    1.0875781    1.1948439    5548.0573    505.26493 
 5000000   -4.7618386    1.8119734   -2.9498652    1.0407056    1.2082843    5548.0573    506.87231 
Loop time of 1404.84 on 2 procs for 400000 steps with 4000 atoms

Performance: 123003.395 tau/day, 284.730 timesteps/s
98.5% CPU use with 2 MPI tasks x no OpenMP threads

MPI task timing breakdown:
Section |  min time  |  avg time  |  max time  |%varavg| %total
---------------------------------------------------------------
Pair    | 1152.1     | 1172       | 1191.9     |  58.2 | 83.43
Neigh   | 126.48     | 126.96     | 127.45     |   4.3 |  9.04
Comm    | 59.527     | 79.906     | 100.29     | 228.0 |  5.69
Output  | 0.83289    | 0.83509    | 0.83728    |   0.2 |  0.06
Modify  | 20.833     | 20.876     | 20.918     |   0.9 |  1.49
Other   |            | 4.224      |            |       |  0.30

Nlocal:    2000 ave 2000 max 2000 min
Histogram: 2 0 0 0 0 0 0 0 0 0
Nghost:    5582 ave 5597 max 5567 min
Histogram: 1 0 0 0 0 0 0 0 0 1
Neighs:    164386 ave 166607 max 162165 min
Histogram: 1 0 0 0 0 0 0 0 0 1

Total # of neighbors = 328772
Ave neighs/atom = 82.193
Neighbor list builds = 20000
Dangerous builds not checked
unfix     intnvt
unfix     rdfnvt
uncompute rdfnvt
uncompute msd
undump    idnvt

next      a
jump      in.melt temploop #it will again transfer the call to label temploop line
variable    a loop 11   #loop parameter defined
variable    temp equal 0.3+($a-1)*0.1   #temp value will increase at rate of 0.1 from 0.3 till 1.3
variable    temp equal 0.3+(11-1)*0.1   

log       log.lammps.npt.${temp}
log       log.lammps.npt.1.3
