thermo    ${nthermo}
thermo    1000
thermo_style custom step pe ke etotal press temp vol c_msd[4]
dump      idnvt all atom 1000 out.dump.nvt.${temp}.lammpstrj
dump      idnvt all atom 1000 out.dump.nvt.0.6.lammpstrj
restart   100000 restartnpt1.data restartnp2.data

fix       intnvt all nvt temp ${temp} ${temp} ${tdamp}
fix       intnvt all nvt temp 0.6 ${temp} ${tdamp}
fix       intnvt all nvt temp 0.6 0.6 ${tdamp}
fix       intnvt all nvt temp 0.6 0.6 1
run       400000
Neighbor list info ...
  update every 20 steps, delay 0 steps, check no
  max neighbors/atom: 2000, page size: 100000
  master list distance cutoff = 3.8
  ghost atom cutoff = 3.8
  binsize = 1.9, bins = 9 9 9
  2 neighbor lists, perpetual/occasional/extra = 1 1 0
  (1) pair lj/cut, perpetual
      attributes: half, newton on
      pair build: half/bin/atomonly/newton
      stencil: half/bin/3d/newton
      bin: standard
  (2) compute rdf, occasional, copy from (1)
      attributes: half, newton on
      pair build: copy
      stencil: none
      bin: none
Per MPI rank memory allocation (min/avg/max) = 5.126 | 5.126 | 5.126 Mbytes
Step PotEng KinEng TotEng Press Temp Volume c_msd[4] 
 1600000   -7.2745522   0.90746695   -6.3670852     1.035281   0.60512925    4028.5933            0 
 1601000   -7.2894233   0.90036294   -6.3890604   0.94731651   0.60039206    4028.5933  0.014711592 
 1602000   -7.2981296   0.89598576   -6.4021438   0.88435899   0.59747321    4028.5933  0.012891914 
 1603000   -7.3091613   0.89141295   -6.4177483   0.83158695   0.59442391    4028.5933  0.012652393 
 1604000   -7.3026476   0.87799309   -6.4246545   0.86060999   0.58547509    4028.5933  0.013870457 
 1605000   -7.3160547   0.88429076   -6.4317639   0.79271964   0.58967459    4028.5933  0.013319821 
 1606000    -7.293359    0.8863867   -6.4069723   0.90891001   0.59107223    4028.5933  0.017761173 
 1607000   -7.2982221   0.90180852   -6.3964136   0.88695487   0.60135602    4028.5933  0.013933853 
 1608000   -7.3018599   0.91024853   -6.3916114    0.8723422    0.6069841    4028.5933  0.014569977 
 1609000   -7.2980289   0.89111188    -6.406917   0.88913606   0.59422314    4028.5933  0.013650074 
 1610000   -7.3223564   0.90782844   -6.4145279    0.7696104    0.6053703    4028.5933  0.015575195 
 1611000   -7.3022797   0.89098157   -6.4112981   0.85514552   0.59413625    4028.5933  0.014783087 
 1612000   -7.3052797   0.90455237   -6.4007274   0.86592166   0.60318571    4028.5933  0.015099125 
 1613000   -7.2971572    0.9116175   -6.3855397   0.90775568   0.60789698    4028.5933  0.015882606 
 1614000   -7.2803834   0.90869823   -6.3716852   0.98720292   0.60595031    4028.5933  0.020138579 
 1615000   -7.2992326   0.90713129   -6.3921013   0.88007328   0.60490542    4028.5933  0.015554666 
 1616000   -7.3033906   0.90408941   -6.3993012   0.87008067   0.60287699    4028.5933  0.017908381 
 1617000   -7.3005092   0.88287005   -6.4176391   0.86283717   0.58872721    4028.5933  0.017534737 
 1618000   -7.3305901   0.89506391   -6.4355262    0.7120576   0.59685849    4028.5933  0.016731984 
 1619000   -7.3031541   0.89823556   -6.4049186   0.87106165   0.59897345    4028.5933  0.024198945 
 1620000   -7.2770572    0.8812268   -6.3958304   0.99315262   0.58763144    4028.5933  0.027677563 
 1621000   -7.2982341   0.89557853   -6.4026556   0.90425075   0.59720165    4028.5933  0.022313684 
 1622000   -7.3057546   0.88436055   -6.4213941   0.85013227   0.58972113    4028.5933  0.018460428 
 1623000   -7.3054365   0.89860338   -6.4068331   0.86008009   0.59921873    4028.5933  0.016720841 
 1624000   -7.2929618   0.89357425   -6.3993876   0.91193489   0.59586513    4028.5933  0.018072653 
 1625000   -7.2901199   0.89308404   -6.3970359   0.93399734   0.59553825    4028.5933  0.019796858 
 1626000   -7.2988305   0.90346883   -6.3953617   0.89792626   0.60246317    4028.5933  0.018374739 
 1627000   -7.3134731   0.90470907   -6.4087641   0.82453156   0.60329021    4028.5933  0.015496183 
 1628000   -7.3119309   0.89697777   -6.4149532   0.81628023   0.59813471    4028.5933  0.016150216 
 1629000   -7.3103912   0.89836337   -6.4120278   0.82637165   0.59905868    4028.5933  0.016983579 
 1630000   -7.3176264   0.92233521   -6.3952912   0.80836368    0.6150439    4028.5933  0.017769001 
 1631000   -7.2954584   0.91143574   -6.3840226   0.91543221   0.60777577    4028.5933  0.020422445 
 1632000   -7.2963397   0.90235335   -6.3939863   0.91203191   0.60171933    4028.5933  0.016972584 
 1633000   -7.3059615   0.89729782   -6.4086637   0.85307925   0.59834814    4028.5933  0.017113569 
 1634000   -7.3123146   0.89826563    -6.414049     0.809373    0.5989935    4028.5933  0.018103315 
 1635000   -7.3161548   0.89114207   -6.4250127   0.79572319   0.59424327    4028.5933  0.016319887 
 1636000   -7.2939645   0.88719606   -6.4067685   0.90204482   0.59161194    4028.5933  0.016580055 
 1637000   -7.3014843   0.90622602   -6.3952583   0.88572909   0.60430175    4028.5933  0.019230029 
 1638000   -7.2965378   0.90804993   -6.3884879    0.9106575     0.605518    4028.5933  0.017502141 
 1639000   -7.2922904   0.91476431   -6.3775261    0.9301952   0.60999538    4028.5933  0.020338906 
 1640000   -7.2905271   0.92372475   -6.3668024   0.95568144   0.61597049    4028.5933   0.01829119 
 1641000   -7.3060905    0.8907711   -6.4153194    0.8373264    0.5939959    4028.5933  0.016978837 
 1642000   -7.3026586   0.89963659   -6.4030221   0.87633868   0.59990771    4028.5933  0.018639631 
 1643000   -7.2991995   0.91092728   -6.3882722   0.89585742   0.60743671    4028.5933  0.017672086 
 1644000   -7.2790379   0.91836871   -6.3606692    1.0088771   0.61239891    4028.5933  0.023231965 
 1645000   -7.3183886   0.91027136   -6.4081172   0.77916327   0.60699933    4028.5933  0.021340098 
 1646000   -7.3193527    0.9056135   -6.4137392   0.77665205   0.60389331    4028.5933  0.017357222 
 1647000    -7.301949    0.8747154   -6.4272336   0.85038647   0.58328942    4028.5933  0.016669055 
 1648000   -7.3291256    0.8955889   -6.4335367   0.72199067   0.59720857    4028.5933  0.016575857 
 1649000    -7.293962   0.90054228   -6.3934197   0.92099896   0.60051165    4028.5933  0.017535453 
 1650000   -7.2772197   0.89127475    -6.385945    1.0075353   0.59433175    4028.5933  0.016731249 
 1651000   -7.3030179   0.90456308   -6.3984549   0.87231738   0.60319285    4028.5933  0.017412642 
 1652000   -7.3161543   0.90423776   -6.4119166   0.79540405   0.60297592    4028.5933   0.02888498 
 1653000   -7.2992137   0.88017528   -6.4190384   0.88569036   0.58693026    4028.5933  0.031334112 
 1654000   -7.3138463   0.91110501   -6.4027413   0.82834193   0.60755523    4028.5933  0.030268613 
 1655000    -7.294495   0.89276981   -6.4017252   0.89065655   0.59532871    4028.5933  0.027344339 
 1656000   -7.3013379   0.88681321   -6.4145247   0.87135638   0.59135665    4028.5933  0.021127747 
 1657000   -7.3191414   0.90288816   -6.4162532   0.79836156   0.60207596    4028.5933  0.023922913 
 1658000   -7.3104167   0.90257468    -6.407842   0.83026322   0.60186692    4028.5933  0.017808136 
 1659000    -7.272745   0.87829872   -6.3944463    1.0089424    0.5856789    4028.5933  0.017956446 
 1660000   -7.2883949   0.91729699   -6.3710979   0.95440137   0.61168424    4028.5933  0.018863572 
 1661000   -7.3003678   0.92023004   -6.3801377   0.89238371   0.61364011    4028.5933  0.017586137 
 1662000   -7.3042307   0.90166455   -6.4025662    0.8601867   0.60126001    4028.5933  0.017103642 
 1663000   -7.2950614   0.88754432   -6.4075171    0.9033662   0.59184417    4028.5933   0.01735977 
 1664000   -7.3049854   0.88847192   -6.4165135   0.85106566   0.59246273    4028.5933  0.017309929 
 1665000   -7.3173139   0.87343222   -6.4438817   0.76704917   0.58243376    4028.5933  0.017026271 
 1666000   -7.3021605   0.90770836   -6.3944522    0.8850215   0.60529023    4028.5933  0.017561484 
 1667000   -7.3017199   0.90861642   -6.3931035   0.87145301   0.60589575    4028.5933  0.017628357 
 1668000   -7.3121979    0.9015255   -6.4106724   0.82082423   0.60116729    4028.5933  0.018124927 
 1669000   -7.2963761   0.86511091   -6.4312651   0.87878281   0.57688483    4028.5933  0.018151182 
 1670000    -7.310185   0.88951721   -6.4206678   0.83560884   0.59315976    4028.5933  0.017738327 
 1671000   -7.3087996   0.89295051   -6.4158491   0.82340354    0.5954492    4028.5933  0.018143626 
 1672000   -7.3201605   0.91808259   -6.4020779   0.77629789   0.61220811    4028.5933  0.018049292 
 1673000   -7.2931322   0.90228991   -6.3908423   0.92363655   0.60167703    4028.5933  0.019354026 
 1674000   -7.3011485   0.90371393   -6.3974346   0.86975697   0.60262661    4028.5933  0.018239814 
 1675000   -7.3126981   0.90207905    -6.410619   0.81517968   0.60153642    4028.5933  0.021512209 
 1676000   -7.3188404   0.90477382   -6.4140666   0.79131606   0.60333338    4028.5933  0.021805705 
 1677000   -7.2986996   0.89379886   -6.4049007   0.89072842   0.59601491    4028.5933  0.021443453 
 1678000   -7.2917347   0.90047338   -6.3912613   0.92811177    0.6004657    4028.5933  0.018447436 
 1679000   -7.2999981   0.88603993   -6.4139582   0.86911578     0.590841    4028.5933  0.020504688 
 1680000   -7.3249579   0.90218751   -6.4227704   0.74668107   0.60160874    4028.5933  0.019831345 
 1681000   -7.3013272   0.90009192   -6.4012353   0.87497343   0.60021134    4028.5933  0.023499147 
 1682000   -7.2890967    0.9008387    -6.388258    0.9404485   0.60070931    4028.5933  0.021874633 
 1683000   -7.2765928   0.89681698   -6.3797758    1.0005854    0.5980275    4028.5933  0.022724533 
 1684000    -7.301667   0.89763319   -6.4040339   0.87535123   0.59857177    4028.5933  0.021079458 
 1685000   -7.3004217     0.899409   -6.4010127   0.87841631   0.59975594    4028.5933  0.018838128 
 1686000   -7.2903029   0.90731393    -6.382989   0.93179372   0.60502721    4028.5933    0.0182052 
 1687000   -7.2913745   0.90354688   -6.3878277   0.92336314   0.60251522    4028.5933   0.01812037 
 1688000   -7.2952302   0.88902585   -6.4062044   0.90026161   0.59283211    4028.5933  0.018093996 
 1689000   -7.3199906    0.9097696    -6.410221   0.78241535   0.60666473    4028.5933  0.020537782 
 1690000   -7.3083003     0.886103   -6.4221973    0.8338082   0.59088305    4028.5933  0.027533387 
 1691000   -7.3160274   0.87977036   -6.4362571   0.78729309   0.58666024    4028.5933  0.026192771 
 1692000   -7.3047325   0.89699512   -6.4077374   0.85274974   0.59814628    4028.5933  0.021546353 
 1693000   -7.2945269   0.89650119   -6.3980257   0.89868449   0.59781692    4028.5933  0.019653781 
 1694000   -7.2942654   0.90583975   -6.3884257   0.91193033   0.60404418    4028.5933  0.018206326 
 1695000   -7.3011533   0.90647736   -6.3946759   0.87801991   0.60446936    4028.5933  0.018284339 
 1696000   -7.2977886   0.90087811   -6.3969105   0.90094869   0.60073559    4028.5933   0.01832513 
 1697000   -7.3061467    0.8997223   -6.4064244   0.84686011   0.59996485    4028.5933  0.018710594 
 1698000   -7.3003658   0.89331901   -6.4070468   0.88019844   0.59569493    4028.5933  0.019052339 
 1699000   -7.2987101   0.88585615   -6.4128539   0.87462042   0.59071844    4028.5933  0.018540761 
 1700000   -7.2924921   0.92358706   -6.3689051   0.96120559   0.61587868    4028.5933  0.017841814 
 1701000   -7.2899771   0.91281706     -6.37716   0.94697666   0.60869688    4028.5933  0.018314628 
 1702000   -7.3037578   0.90102237   -6.4027355   0.85185455   0.60083179    4028.5933   0.01762033 
 1703000   -7.3091787    0.8846547    -6.424524   0.83098117   0.58991728    4028.5933  0.018130037 
 1704000   -7.3216384   0.90711755   -6.4145208   0.76193181   0.60489626    4028.5933   0.01921532 
 1705000   -7.3004978   0.89279814   -6.4076996   0.86578023    0.5953476    4028.5933  0.019152703 
 1706000   -7.3003153   0.91015709   -6.3901582   0.89200778   0.60692313    4028.5933   0.01878166 
 1707000   -7.2931995   0.91668701   -6.3765125    0.9243367   0.61127749    4028.5933  0.018211732 
 1708000   -7.2865361   0.89208077   -6.3944553   0.93547918   0.59486923    4028.5933  0.018878636 
 1709000   -7.3003915   0.89003018   -6.4103613   0.88172726   0.59350183    4028.5933  0.018916975 
 1710000   -7.3009032   0.88713599   -6.4137672   0.87539335   0.59157188    4028.5933  0.022417648 
 1711000   -7.3102389   0.89485693    -6.415382   0.82441495   0.59672047    4028.5933  0.020926289 
 1712000   -7.3024906   0.90458723   -6.3979034   0.86969753   0.60320896    4028.5933  0.021507618 
 1713000   -7.3000418     0.898565   -6.4014769    0.8878572   0.59919313    4028.5933  0.024994741 
 1714000   -7.3001524   0.91139401   -6.3887584   0.88910706   0.60774795    4028.5933  0.031745209 
 1715000   -7.2976321   0.89588104   -6.4017511   0.88605422   0.59740338    4028.5933   0.03091489 
 1716000   -7.3093053   0.89333768   -6.4159677   0.81640229   0.59570738    4028.5933  0.029868874 
 1717000    -7.295103   0.89619116   -6.3989118   0.90739749   0.59761018    4028.5933   0.02229801 
 1718000   -7.2934991   0.90180706    -6.391692   0.91778217   0.60135505    4028.5933  0.020601067 
 1719000   -7.2967605   0.88159742   -6.4151631   0.86906837   0.58787858    4028.5933  0.022952996 
 1720000   -7.3059491   0.89937463   -6.4065745   0.83374712   0.59973302    4028.5933  0.020499508 
 1721000   -7.2897936   0.90062781   -6.3891658   0.93674817   0.60056868    4028.5933  0.020322882 
 1722000   -7.2947857    0.9006764   -6.3941093   0.91118081   0.60060108    4028.5933  0.021537986 
 1723000   -7.2994427   0.88905887   -6.4103838   0.87760289   0.59285412    4028.5933  0.030798574 
 1724000   -7.3129763   0.90389009   -6.4090863   0.81017846   0.60274408    4028.5933  0.023940391 
 1725000   -7.2971729   0.90647992    -6.390693   0.90397365   0.60447106    4028.5933  0.020511795 
 1726000   -7.2977267   0.91395343   -6.3837733   0.91752139   0.60945465    4028.5933  0.023595133 
 1727000   -7.2953133   0.89363627    -6.401677   0.90592566   0.59590649    4028.5933  0.020206602 
 1728000   -7.3014454   0.89301897   -6.4084265   0.86180778   0.59549486    4028.5933   0.02054004 
 1729000    -7.338069   0.89801709   -6.4400519   0.66974996   0.59882777    4028.5933  0.021436753 
 1730000   -7.2972677   0.90322894   -6.3940387   0.90079169    0.6023032    4028.5933  0.019661989 
 1731000   -7.3002524    0.9033702   -6.3968822    0.8860794    0.6023974    4028.5933  0.022847092 
 1732000   -7.2927896   0.89064411   -6.4021455   0.90693423   0.59391122    4028.5933  0.022237364 
 1733000   -7.3335374   0.89641035    -6.437127   0.71404151   0.59775634    4028.5933  0.022955625 
 1734000   -7.3162513   0.89146683   -6.4247845   0.78049276   0.59445984    4028.5933  0.020785901 
 1735000   -7.3067048   0.89078822   -6.4159166   0.83764098   0.59400732    4028.5933  0.022361436 
 1736000   -7.3065789   0.90107348   -6.4055054    0.8471095   0.60086587    4028.5933  0.027165321 
 1737000   -7.2774875    0.8885256   -6.3889619   0.99491714   0.59249853    4028.5933  0.029402076 
 1738000   -7.2961154   0.92276673   -6.3733487   0.91972702   0.61533165    4028.5933  0.037452565 
 1739000   -7.3029661   0.91187675   -6.3910894    0.8744705   0.60806985    4028.5933  0.037105356 
 1740000   -7.3112247   0.89955301   -6.4116717   0.82573993   0.59985197    4028.5933  0.040621964 
 1741000   -7.3205603   0.89947962   -6.4210807   0.77697206   0.59980303    4028.5933  0.045048689 
 1742000   -7.3178644   0.89203868   -6.4258257   0.78008305   0.59484116    4028.5933  0.043337645 
 1743000   -7.2895215   0.90132469   -6.3881969   0.92532784   0.60103339    4028.5933  0.028115269 
 1744000   -7.2961206   0.90135783   -6.3947628   0.90880818   0.60105549    4028.5933  0.031471968 
 1745000     -7.30859    0.9188627   -6.3897273   0.85058881   0.61272832    4028.5933   0.03157183 
 1746000   -7.2904477    0.8861867    -6.404261   0.92975414   0.59093887    4028.5933  0.030412466 
 1747000   -7.3198792    0.8987432    -6.421136   0.77225247   0.59931196    4028.5933  0.020868568 
 1748000   -7.3037595   0.90138503   -6.4023744   0.85945709   0.60107362    4028.5933   0.02493717 
 1749000   -7.2992321   0.89458346   -6.4046486   0.87193671   0.59653811    4028.5933  0.027178296 
 1750000   -7.3133011   0.89161234   -6.4216888   0.80277115   0.59455686    4028.5933  0.028863323 
 1751000   -7.3094582   0.90421786   -6.4052403   0.82697837   0.60296265    4028.5933  0.024370483 
 1752000   -7.2994291   0.90859003   -6.3908391   0.89015968   0.60587816    4028.5933  0.024624379 
 1753000   -7.2933382   0.90039065   -6.3929475   0.91815668   0.60041054    4028.5933  0.024901349 
 1754000   -7.2892444    0.8972445   -6.3919999   0.94357751   0.59831258    4028.5933  0.023877732 
 1755000   -7.3016253   0.89726838   -6.4043569   0.87606171    0.5983285    4028.5933  0.024962711 
 1756000   -7.2913993   0.88569327    -6.405706   0.92809667   0.59060983    4028.5933  0.024063424 
 1757000   -7.2984855   0.91419379   -6.3842917   0.90013305   0.60961493    4028.5933  0.022370081 
 1758000   -7.2916129   0.90804694   -6.3835659   0.92162694     0.605516    4028.5933  0.023404802 
 1759000   -7.2961092   0.90463489   -6.3914743   0.90508144   0.60324074    4028.5933  0.026141618 
 1760000   -7.2998448    0.9015765   -6.3982683   0.87666986    0.6012013    4028.5933  0.023647532 
 1761000   -7.3078856    0.8947962   -6.4130894   0.83339591   0.59667997    4028.5933   0.02180197 
 1762000   -7.2958803   0.89281483   -6.4030654   0.90289325   0.59535872    4028.5933  0.025500709 
 1763000   -7.2896994    0.9107824    -6.378917   0.94241358    0.6073401    4028.5933  0.026718059 
 1764000   -7.2961493   0.91136625    -6.384783   0.91251973   0.60772944    4028.5933  0.037242889 
 1765000   -7.2874171   0.89552575   -6.3918913   0.94147708   0.59716646    4028.5933  0.030227598 
 1766000   -7.3117376   0.88961258    -6.422125   0.79863444   0.59322336    4028.5933  0.030178796 
 1767000   -7.3061637   0.87500732   -6.4311563   0.83062036   0.58348409    4028.5933  0.030084177 
 1768000   -7.3054263    0.8971099   -6.4083164   0.86612465   0.59822282    4028.5933  0.029443764 
 1769000   -7.2752973     0.878486   -6.3968113    1.0046054   0.58580379    4028.5933  0.034559056 
 1770000   -7.2987091   0.91288882   -6.3858203   0.89522768   0.60874473    4028.5933  0.038547791 
 1771000    -7.288016   0.90763239   -6.3803836   0.96067254   0.60523957    4028.5933  0.029227677 
 1772000   -7.3030482   0.92348371   -6.3795644   0.88797004   0.61580976    4028.5933  0.027065881 
 1773000   -7.2995231    0.8905772    -6.408946   0.87544933    0.5938666    4028.5933  0.034188068 
 1774000      -7.2948   0.88968886   -6.4051111   0.89753385   0.59327423    4028.5933  0.037229787 
 1775000   -7.3135632   0.90912388   -6.4044394   0.81662455   0.60623415    4028.5933  0.041027734 
 1776000   -7.3019309   0.90264787    -6.399283   0.87434957   0.60191573    4028.5933  0.036752729 
 1777000   -7.2961915   0.91023716   -6.3859544   0.91156092   0.60697652    4028.5933  0.037075635 
 1778000   -7.3043745   0.89992048    -6.404454     0.854201   0.60009701    4028.5933  0.039207377 
 1779000   -7.2921325   0.87519383   -6.4169387   0.92382497   0.58360846    4028.5933  0.049224019 
 1780000   -7.3052803   0.88047559   -6.4248047   0.84069361   0.58713051    4028.5933  0.052379402 
 1781000   -7.2997976   0.88105703   -6.4187406   0.86383889   0.58751823    4028.5933   0.05021537 
 1782000   -7.3010192   0.90204238   -6.3989768   0.87698179   0.60151196    4028.5933  0.061861298 
 1783000   -7.3047643   0.91225539   -6.3925089   0.86363328   0.60832234    4028.5933  0.060844784 
 1784000     -7.30558     0.906215    -6.399365   0.85667087   0.60429441    4028.5933  0.059932476 
 1785000   -7.3227783   0.90630324   -6.4164751    0.7730043   0.60435325    4028.5933  0.062396372 
 1786000   -7.3114609   0.89224538   -6.4192156   0.81658653   0.59497899    4028.5933  0.058939584 
 1787000   -7.3030731   0.89497027   -6.4081028   0.86530802   0.59679604    4028.5933  0.067368371 
 1788000   -7.3040251   0.90984157   -6.3941835   0.85736027   0.60671273    4028.5933  0.069610386 
 1789000    -7.295016   0.91465731   -6.3803586   0.91356615   0.60992402    4028.5933   0.06267182 
 1790000   -7.3079823   0.91413313   -6.3938491    0.8563824   0.60957448    4028.5933  0.060066936 
 1791000   -7.3048715   0.89946095   -6.4054105   0.85480443   0.59979058    4028.5933  0.061970827 
 1792000   -7.3062253   0.88778818   -6.4184371   0.84503874   0.59200679    4028.5933  0.071341313 
 1793000   -7.3164678   0.87371567   -6.4427521   0.78643452   0.58262277    4028.5933  0.060696516 
 1794000    -7.292083   0.89972256   -6.3923605   0.92306183   0.59996503    4028.5933  0.056555141 
 1795000   -7.2943239   0.90245233   -6.3918715   0.91801795   0.60178533    4028.5933  0.052904015 
 1796000    -7.300098   0.88084186   -6.4192561    0.8754833   0.58737475    4028.5933  0.056436361 
 1797000   -7.3161541   0.88561563   -6.4305384   0.78288093   0.59055806    4028.5933  0.061131128 
 1798000    -7.316213   0.89722255   -6.4189904   0.78888321   0.59829794    4028.5933  0.061730337 
 1799000   -7.3008509   0.88742827   -6.4134227   0.87646673   0.59176679    4028.5933   0.06239936 
 1800000   -7.2820768   0.92608718   -6.3559896   0.98582332   0.61754584    4028.5933   0.06643121 
 1801000   -7.3073269   0.89635482   -6.4109721   0.84717147   0.59771931    4028.5933  0.064439021 
 1802000   -7.2994209   0.88633398   -6.4130869   0.87671589   0.59103708    4028.5933   0.06834713 
 1803000   -7.3037569   0.89989498   -6.4038619   0.86218552   0.60008001    4028.5933  0.061779034 
 1804000   -7.2716623   0.88369493   -6.3879674    1.0290129   0.58927727    4028.5933  0.068844682 
 1805000   -7.2938794   0.89928941     -6.39459   0.91056528   0.59967619    4028.5933  0.054002582 
 1806000   -7.2958248   0.88519038   -6.4106344   0.89497111   0.59027449    4028.5933  0.062540889 
 1807000   -7.2989242   0.88411602   -6.4148082   0.87206519   0.58955807    4028.5933  0.065984901 
 1808000   -7.3139931   0.88513666   -6.4288564   0.79634684   0.59023867    4028.5933  0.065641391 
 1809000   -7.3263474   0.92919574   -6.3971517   0.76378402   0.61961873    4028.5933  0.060758922 
 1810000    -7.306055   0.91766921   -6.3883858   0.85379596   0.61193246    4028.5933   0.06451677 
 1811000   -7.2899939   0.92149137   -6.3685025   0.94374712    0.6144812    4028.5933  0.067936419 
 1812000   -7.2830975   0.88894481   -6.3941527   0.96897215   0.59277807    4028.5933  0.062391694 
 1813000   -7.3048911   0.89625478   -6.4086363   0.84410715    0.5976526    4028.5933  0.063361836 
 1814000   -7.3071381   0.89421707    -6.412921   0.84567583   0.59629379    4028.5933   0.07298835 
 1815000   -7.2978778   0.89194034   -6.4059374   0.88764525   0.59477558    4028.5933  0.072991567 
 1816000   -7.2936789   0.89933212   -6.3943468   0.90628845   0.59970467    4028.5933  0.075796701 
 1817000   -7.3025015   0.90078627   -6.4017152   0.87230669   0.60067435    4028.5933  0.074089861 
 1818000   -7.3042185    0.8894411   -6.4147774   0.84035853   0.59310901    4028.5933  0.071966398 
 1819000    -7.308994    0.8886854   -6.4203086   0.82991325   0.59260508    4028.5933  0.059378058 
 1820000   -7.3147861   0.89694524   -6.4178408   0.81195535   0.59811302    4028.5933  0.060364344 
 1821000    -7.284053   0.90263275   -6.3814203   0.96425259   0.60190564    4028.5933  0.054208013 
 1822000   -7.2886738   0.90994524   -6.3787285   0.95227671   0.60678186    4028.5933  0.054014248 
 1823000   -7.2933011    0.9081391    -6.385162   0.91623457   0.60557746    4028.5933  0.059518248 
 1824000    -7.300997   0.89535249   -6.4056445   0.88400295   0.59705092    4028.5933  0.059803936 
 1825000   -7.3125731   0.90808202    -6.404491   0.82511076   0.60553939    4028.5933  0.059492893 
 1826000    -7.281068   0.89481521   -6.3862528   0.97611738   0.59669265    4028.5933  0.052365704 
 1827000   -7.2897898   0.90273816   -6.3870517   0.93753141   0.60197594    4028.5933  0.050220233 
 1828000   -7.3106619   0.91652412   -6.3941377   0.83045132   0.61116887    4028.5933  0.057447949 
 1829000   -7.3100101    0.9056378   -6.4043723   0.83442644   0.60390951    4028.5933  0.061659725 
 1830000   -7.3022396   0.91532212   -6.3869175   0.88207032   0.61036734    4028.5933  0.071450839 
 1831000   -7.2996435   0.89179265   -6.4078509    0.8808074    0.5946771    4028.5933  0.072517177 
 1832000    -7.313432   0.88970291   -6.4237291   0.79716169    0.5932836    4028.5933  0.063028557 
 1833000   -7.3095598    0.8883727   -6.4211871   0.82042301   0.59239657    4028.5933  0.066160253 
 1834000   -7.3001043   0.90344645   -6.3966578   0.88270425   0.60244824    4028.5933  0.065345529 
 1835000   -7.3028445   0.91392922   -6.3889153   0.88426808    0.6094385    4028.5933  0.070204752 
 1836000   -7.3031108   0.91734226   -6.3857685   0.88683687   0.61171444    4028.5933  0.064233632 
 1837000   -7.3155323   0.90796349   -6.4075688   0.80994095   0.60546036    4028.5933  0.070725815 
 1838000   -7.3180108   0.90279776    -6.415213   0.78064945   0.60201568    4028.5933  0.078652261 
 1839000   -7.2988561   0.89753058   -6.4013255   0.88937524   0.59850335    4028.5933   0.08898197 
 1840000   -7.2926663    0.9096817   -6.3829846   0.92275937   0.60660612    4028.5933    0.0963236 
 1841000   -7.2837437   0.90460287   -6.3791408    0.9673117   0.60321938    4028.5933  0.097616071 
 1842000   -7.3026752   0.90729621    -6.395379   0.87164291    0.6050154    4028.5933  0.088566049 
 1843000   -7.3003435   0.89317641   -6.4071671   0.86898571   0.59559984    4028.5933  0.092190937 
 1844000   -7.2997926   0.90152938   -6.3982632   0.88641905   0.60116988    4028.5933  0.089983637 
 1845000   -7.3004907   0.92155099   -6.3789398   0.88751334   0.61452096    4028.5933  0.090251886 
 1846000   -7.2977958   0.91430375   -6.3834921   0.91167725   0.60968826    4028.5933  0.096394094 
 1847000   -7.3163058   0.91203126   -6.4042745   0.79046122   0.60817288    4028.5933    0.1045601 
 1848000   -7.2912397   0.87329772    -6.417942   0.92383497   0.58234407    4028.5933   0.10151409 
 1849000   -7.3238817   0.89713011   -6.4267516   0.74368864    0.5982363    4028.5933   0.10274958 
 1850000   -7.3137891   0.88653643   -6.4272527   0.80087437   0.59117208    4028.5933   0.10336197 
 1851000    -7.292121   0.89069117   -6.4014298   0.92220388    0.5939426    4028.5933  0.090266031 
 1852000   -7.2784716   0.88096971   -6.3975019   0.97860025   0.58746001    4028.5933   0.09025701 
 1853000   -7.3102892   0.90763441   -6.4026547   0.82186158   0.60524092    4028.5933  0.082733603 
 1854000   -7.3241714   0.90330567   -6.4208657   0.74743399   0.60235437    4028.5933  0.081611305 
 1855000    -7.300067   0.88234026   -6.4177267   0.86160301   0.58837393    4028.5933  0.086056417 
 1856000   -7.3037808    0.8946476   -6.4091332   0.85435329   0.59658088    4028.5933  0.072874878 
 1857000   -7.3054742   0.89641627    -6.409058    0.8466017   0.59776028    4028.5933  0.075552427 
 1858000   -7.2951494   0.90234787   -6.3928016   0.90852776   0.60171568    4028.5933  0.080175634 
 1859000   -7.3046707    0.9128262   -6.3918445   0.86865275   0.60870298    4028.5933  0.074877982 
 1860000   -7.2990851   0.91108018   -6.3880049   0.88948373   0.60753867    4028.5933  0.076157647 
 1861000   -7.3159985   0.87554996   -6.4404485   0.77649032   0.58384593    4028.5933  0.073251194 
 1862000   -7.2998049    0.8976064   -6.4021985   0.86908155    0.5985539    4028.5933  0.077176439 
 1863000   -7.2929546   0.89436542   -6.3985892   0.92685199   0.59639271    4028.5933  0.076143778 
 1864000   -7.2890649   0.90609304   -6.3829718   0.93875448   0.60421308    4028.5933  0.079418224 
 1865000     -7.29927   0.90543645   -6.3938335   0.89242147   0.60377525    4028.5933  0.083960303 
 1866000   -7.3177287    0.9008569   -6.4168718   0.79064667   0.60072145    4028.5933  0.087475856 
 1867000   -7.3029535   0.89349297   -6.4094605   0.87185841   0.59581094    4028.5933   0.08497576 
 1868000   -7.3061705   0.90288802   -6.4032825   0.85256389   0.60207586    4028.5933   0.07952505 
 1869000   -7.2952092   0.91833838   -6.3768708   0.91861283   0.61237868    4028.5933  0.088628392 
 1870000   -7.2954814   0.91594269   -6.3795387   0.91595744   0.61078116    4028.5933  0.080431577 
 1871000   -7.3051129    0.9149591   -6.3901538   0.87396178   0.61012527    4028.5933  0.082873031 
 1872000   -7.3015581    0.9072512   -6.3943069   0.87564678   0.60498538    4028.5933  0.091581815 
 1873000    -7.313893   0.89918466   -6.4147084   0.80933242   0.59960634    4028.5933   0.09916885 
 1874000   -7.3078414    0.8800109   -6.4278305   0.83669168   0.58682064    4028.5933  0.097222191 
 1875000   -7.3050357   0.87858655   -6.4264492   0.83352214   0.58587084    4028.5933   0.10123498 
 1876000   -7.2945043   0.89741992   -6.3970844   0.91692454   0.59842955    4028.5933  0.092232579 
 1877000   -7.2922636   0.90233255   -6.3899311   0.91842466   0.60170546    4028.5933  0.093189767 
 1878000   -7.2966752   0.86600294   -6.4306723   0.87947257   0.57747966    4028.5933   0.10355505 
 1879000    -7.300736   0.87092317   -6.4298128   0.85810822   0.58076064    4028.5933   0.09546949 
 1880000   -7.3014264   0.88341292   -6.4180135   0.86883395   0.58908922    4028.5933  0.097030517 
 1881000   -7.3162176   0.90469313   -6.4115245   0.78311675   0.60327957    4028.5933  0.089948967 
 1882000   -7.2953346   0.92931864   -6.3660159   0.93063427   0.61970068    4028.5933  0.094655737 
 1883000   -7.2980374   0.91635842   -6.3816789   0.89564955   0.61105838    4028.5933  0.097228672 
 1884000   -7.3104929   0.91447884   -6.3960141    0.8262281   0.60980501    4028.5933  0.092526394 
 1885000   -7.3058563   0.88948083   -6.4163754   0.85171494    0.5931355    4028.5933  0.099761559 
 1886000   -7.3050966   0.90428301   -6.4008136   0.86127866   0.60300609    4028.5933  0.095268672 
 1887000   -7.2806208   0.90286302   -6.3777577   0.98947762   0.60205919    4028.5933  0.076861663 
 1888000   -7.2923802   0.90392725    -6.388453   0.92573961   0.60276886    4028.5933  0.077444593 
 1889000   -7.2897687   0.89731961   -6.3924491   0.93389382   0.59836266    4028.5933  0.070766565 
 1890000   -7.3011392   0.88976934   -6.4113699   0.87095626   0.59332789    4028.5933   0.07734211 
 1891000     -7.29703   0.88548667   -6.4115433   0.89092438   0.59047206    4028.5933  0.077635414 
 1892000   -7.2950985   0.89737995   -6.3977185   0.90992223    0.5984029    4028.5933  0.078676424 
 1893000   -7.2696173   0.90258615   -6.3670311    1.0537767   0.60187457    4028.5933  0.074688534 
 1894000   -7.3009889   0.92295149   -6.3780374   0.88694768   0.61545485    4028.5933  0.079026874 
 1895000   -7.3007449    0.8980317   -6.4027132   0.87958241   0.59883751    4028.5933  0.079937916 
 1896000   -7.3132268   0.88902179    -6.424205   0.79272387    0.5928294    4028.5933  0.078423621 
 1897000   -7.3261901   0.91179045   -6.4143997   0.74233925    0.6080123    4028.5933  0.070910362 
 1898000   -7.3078889   0.90573837   -6.4021505   0.84387493   0.60397657    4028.5933  0.077704911 
 1899000   -7.2965428   0.91142114   -6.3851217   0.90434337   0.60776604    4028.5933  0.075011932 
 1900000   -7.2889983   0.91143437   -6.3775639   0.94167696   0.60777486    4028.5933  0.068950666 
 1901000   -7.2957652   0.90032354   -6.3954416   0.89481119   0.60036579    4028.5933  0.071089876 
 1902000   -7.3084871   0.89414482   -6.4143423   0.83013925   0.59624561    4028.5933  0.073773606 
 1903000   -7.3050751    0.8938759   -6.4111992   0.83638694   0.59606628    4028.5933  0.073423296 
 1904000    -7.303858   0.89844096   -6.4054171   0.87197751   0.59911042    4028.5933  0.077689499 
 1905000   -7.2925683   0.89730087   -6.3952674   0.92323824   0.59835017    4028.5933  0.080995184 
 1906000   -7.3061274   0.91233425   -6.3937932   0.85059548   0.60837493    4028.5933  0.080334624 
 1907000   -7.3098722   0.89899768   -6.4108745   0.82764787   0.59948166    4028.5933  0.074515572 
 1908000   -7.3170378    0.8910521   -6.4259857   0.77724227   0.59418328    4028.5933  0.077026888 
 1909000   -7.3149091   0.90572184   -6.4091872   0.79740403   0.60396555    4028.5933  0.079760652 
 1910000   -7.3121413   0.89903613   -6.4131052   0.80981259   0.59950729    4028.5933  0.067494304 
 1911000   -7.2959208   0.90635262   -6.3895681   0.91526025   0.60438618    4028.5933  0.074538647 
 1912000   -7.2940179   0.91923433   -6.3747836   0.92976986   0.61297613    4028.5933  0.066430177 
 1913000   -7.3000248   0.90894454   -6.3910802   0.88765603   0.60611456    4028.5933  0.071165263 
 1914000   -7.2973928   0.88928388   -6.4081089   0.88132645   0.59300417    4028.5933  0.084366212 
 1915000    -7.293998   0.87748905   -6.4165089   0.90453322   0.58513899    4028.5933  0.079285095 
 1916000    -7.307693   0.89091498    -6.416778   0.82876742   0.59409184    4028.5933  0.071646551 
 1917000   -7.2857416   0.88393425   -6.4018073   0.95458331   0.58943686    4028.5933  0.070525876 
 1918000   -7.2821508   0.87852736   -6.4036234   0.96686233   0.58583137    4028.5933  0.071674427 
 1919000   -7.3198819   0.89947934   -6.4204026   0.77548869   0.59980285    4028.5933  0.072191073 
 1920000   -7.2998899   0.90748436   -6.3924056   0.88808553   0.60514086    4028.5933  0.071883148 
 1921000   -7.2943493   0.90610364   -6.3882456   0.91116291   0.60422015    4028.5933  0.074310913 
 1922000   -7.2969888   0.88963467   -6.4073542   0.89754563   0.59323809    4028.5933  0.073082114 
 1923000   -7.3049844    0.8947793   -6.4102051   0.85462984    0.5966687    4028.5933  0.074946906 
 1924000   -7.2993454   0.90062405   -6.3987214   0.89450354   0.60056618    4028.5933  0.075531885 
 1925000     -7.28118   0.89598976   -6.3851903    0.9855594   0.59747588    4028.5933  0.071256736 
 1926000   -7.2939211   0.92236177   -6.3715593   0.93518255   0.61506161    4028.5933  0.076177138 
 1927000   -7.3029672   0.90232524   -6.4006419   0.86784845   0.60170059    4028.5933  0.073757148 
 1928000   -7.3084127   0.89811089   -6.4103018   0.83212038   0.59889032    4028.5933  0.074207174 
 1929000   -7.3039459   0.90554107   -6.3984049   0.86925033     0.603845    4028.5933  0.073174275 
 1930000   -7.3000799   0.92518697   -6.3748929   0.89353117   0.61694555    4028.5933  0.077875382 
 1931000   -7.2888216   0.90864369   -6.3801779   0.95379681   0.60591394    4028.5933  0.075461324 
 1932000   -7.2882693   0.90253377   -6.3857355   0.94834118   0.60183964    4028.5933  0.070027915 
 1933000   -7.3194627   0.90829157   -6.4111712   0.78266976   0.60567913    4028.5933  0.066671919 
 1934000   -7.2845999   0.88573466   -6.3988652   0.95730693   0.59063743    4028.5933  0.060336605 
 1935000   -7.2837706    0.8885202   -6.3952504   0.96005393   0.59249493    4028.5933  0.060462094 
 1936000   -7.3007024   0.89329695   -6.4074055   0.87357203   0.59568022    4028.5933  0.058432169 
 1937000    -7.325798   0.91098392   -6.4148141   0.74798947   0.60747448    4028.5933  0.056815484 
 1938000   -7.2977551   0.89925889   -6.3984962   0.89526338   0.59965584    4028.5933  0.054785518 
 1939000   -7.3022024    0.9120984    -6.390104   0.88333462   0.60821765    4028.5933  0.060807653 
 1940000   -7.2992159   0.88633828   -6.4128777   0.87829698   0.59103995    4028.5933  0.054744379 
 1941000   -7.2969718   0.87035853   -6.4266133   0.87780719   0.58038411    4028.5933  0.052631276 
 1942000   -7.3116515   0.89758081   -6.4140707    0.8219693   0.59853684    4028.5933   0.05977146 
 1943000   -7.2809355    0.8859708   -6.3949647   0.97729649    0.5907949    4028.5933  0.068503709 
 1944000   -7.3037228   0.91375892   -6.3899639   0.88164886   0.60932494    4028.5933  0.065054175 
 1945000   -7.2829997   0.89957674    -6.383423   0.98426818   0.59986779    4028.5933   0.05772571 
 1946000   -7.3038997   0.90385584   -6.4000439   0.86182902   0.60272124    4028.5933  0.055497565 
 1947000   -7.3116871   0.90382044   -6.4078667   0.82532793   0.60269763    4028.5933   0.05649378 
 1948000   -7.3041763   0.89336383   -6.4108125   0.86034586   0.59572482    4028.5933  0.058475378 
 1949000    -7.294473   0.92582895    -6.368644   0.92524826   0.61737364    4028.5933  0.060605662 
 1950000   -7.2910911   0.91296292   -6.3781282   0.93879618   0.60879414    4028.5933  0.066890942 
 1951000   -7.2713431   0.88156678   -6.3897763    1.0266388   0.58785815    4028.5933  0.057492542 
 1952000   -7.3022291   0.90714417   -6.3950849   0.86669036   0.60491401    4028.5933  0.062058235 
 1953000   -7.3227008   0.87928275    -6.443418   0.75122152   0.58633508    4028.5933  0.054142189 
 1954000   -7.3080036   0.89766138   -6.4103422   0.84217968   0.59859057    4028.5933  0.053471967 
 1955000   -7.2899422   0.89119965   -6.3987425   0.93011104   0.59428167    4028.5933  0.056906455 
 1956000   -7.2906283   0.90316042   -6.3874679   0.93150347   0.60225751    4028.5933  0.053200853 
 1957000   -7.3219439    0.8987415   -6.4232024   0.76278065   0.59931083    4028.5933  0.055764012 
 1958000   -7.3153213   0.88903863   -6.4262827    0.7893822   0.59284063    4028.5933  0.055028635 
 1959000   -7.2933661   0.90204442   -6.3913217   0.91990532   0.60151333    4028.5933  0.056972085 
 1960000   -7.2979909   0.90539704   -6.3925938   0.89010828   0.60374896    4028.5933  0.059148941 
 1961000   -7.3128566   0.90717614   -6.4056804   0.81500326   0.60493532    4028.5933  0.053501998 
 1962000    -7.300172   0.89729541   -6.4028766   0.87734005   0.59834653    4028.5933  0.053446253 
 1963000   -7.2962492   0.90509754   -6.3911516   0.90882262   0.60354924    4028.5933  0.061345336 
 1964000   -7.2982767   0.89531968    -6.402957   0.89887164   0.59702904    4028.5933  0.065233626 
 1965000   -7.3409943   0.91231326   -6.4286811    0.6766584   0.60836093    4028.5933  0.054918664 
 1966000   -7.3146113   0.89494275   -6.4196686   0.80027094   0.59677769    4028.5933  0.051838599 
 1967000   -7.3073585   0.89999568   -6.4073628   0.84386806   0.60014716    4028.5933   0.05242739 
 1968000   -7.2844423   0.88464559   -6.3997967   0.95974248    0.5899112    4028.5933  0.055348407 
 1969000   -7.2949619    0.9004237   -6.3945382   0.90944955   0.60043257    4028.5933  0.047451942 
 1970000   -7.3359302   0.87688752   -6.4590427   0.67386725   0.58473786    4028.5933  0.046965405 
 1971000   -7.3146902   0.91687663   -6.3978135   0.81681804   0.61140394    4028.5933  0.046922308 
 1972000   -7.2974587    0.8966778   -6.4007809   0.89905334   0.59793468    4028.5933     0.046327 
 1973000   -7.3215839   0.90576421   -6.4158197   0.78198726    0.6039938    4028.5933    0.0459843 
 1974000   -7.2986045   0.89212434   -6.4064801   0.88915517   0.59489829    4028.5933  0.046569168 
 1975000   -7.3012931   0.90321096   -6.3980821   0.87885902   0.60229121    4028.5933  0.044582907 
 1976000   -7.2962625   0.90508729   -6.3911752    0.8966439   0.60354241    4028.5933  0.045168524 
 1977000   -7.2830132   0.90592565   -6.3770875   0.97503073   0.60410146    4028.5933   0.04492078 
 1978000   -7.2804842   0.91395576   -6.3665285    1.0012736    0.6094562    4028.5933  0.047717588 
 1979000   -7.3164187   0.90452514   -6.4118936   0.79981552   0.60316755    4028.5933  0.043498688 
 1980000   -7.3138655   0.89880475   -6.4150608   0.80764593     0.599353    4028.5933  0.039560816 
 1981000   -7.2885794   0.89291858   -6.3956608   0.93739731   0.59542791    4028.5933  0.041010442 
 1982000   -7.2956226   0.91291133   -6.3827113   0.92285752   0.60875974    4028.5933   0.04057441 
 1983000    -7.316651   0.90433389   -6.4123171   0.79166024   0.60304002    4028.5933  0.040040284 
 1984000   -7.3038313   0.88415468   -6.4196766   0.85350591   0.58958385    4028.5933  0.043374853 
 1985000   -7.3131457   0.87724824   -6.4358975   0.81111613    0.5849784    4028.5933  0.039374817 
 1986000   -7.3030753   0.88019076   -6.4228845   0.85497992   0.58694057    4028.5933  0.037149993 
 1987000   -7.3008925   0.90460567   -6.3962869   0.86484338   0.60322125    4028.5933  0.038713584 
 1988000   -7.2970111   0.90393195   -6.3930792   0.88735935   0.60277199    4028.5933  0.041694294 
 1989000    -7.301977   0.89556549   -6.4064115   0.87613368   0.59719296    4028.5933  0.044846785 
 1990000   -7.2969554   0.88556158   -6.4113938   0.88462747   0.59052202    4028.5933  0.041866883 
 1991000   -7.2979618   0.91325882    -6.384703   0.89306247   0.60899146    4028.5933  0.044055664 
 1992000   -7.2930779   0.91590346   -6.3771744   0.92112568   0.61075499    4028.5933  0.039107337 
 1993000   -7.3020385   0.90580403   -6.3962345   0.87763493   0.60402036    4028.5933  0.037478172 
 1994000   -7.3043468   0.89730937   -6.4070374   0.86487348   0.59835583    4028.5933  0.037752926 
 1995000   -7.3145839   0.89983874   -6.4147451   0.79287184    0.6000425    4028.5933  0.041156537 
 1996000   -7.3306799   0.90861953   -6.4220604   0.72268245   0.60589783    4028.5933  0.041015988 
 1997000   -7.3119246   0.89885017   -6.4130745   0.81885628   0.59938329    4028.5933  0.041882754 
 1998000   -7.2923477   0.90507572    -6.387272    0.9238258    0.6035347    4028.5933  0.044744852 
 1999000   -7.3038957   0.89929993   -6.4045957   0.85989711   0.59968321    4028.5933  0.048793464 
 2000000   -7.3058178   0.89345604   -6.4123617   0.85017873   0.59578631    4028.5933  0.049239642 
Loop time of 1509.43 on 2 procs for 400000 steps with 4000 atoms

Performance: 114479.957 tau/day, 265.000 timesteps/s
99.3% CPU use with 2 MPI tasks x no OpenMP threads

MPI task timing breakdown:
Section |  min time  |  avg time  |  max time  |%varavg| %total
---------------------------------------------------------------
Pair    | 1317.2     | 1318.3     | 1319.4     |   3.1 | 87.34
Neigh   | 134.35     | 134.48     | 134.61     |   1.1 |  8.91
Comm    | 34.916     | 35.887     | 36.859     |  16.2 |  2.38
Output  | 0.72351    | 0.72535    | 0.72719    |   0.2 |  0.05
Modify  | 15.897     | 15.897     | 15.898     |   0.0 |  1.05
Other   |            | 4.115      |            |       |  0.27

Nlocal:    2000 ave 2008 max 1992 min
Histogram: 1 0 0 0 0 0 0 0 0 1
Nghost:    6545.5 ave 6548 max 6543 min
Histogram: 1 0 0 0 0 0 0 0 0 1
Neighs:    225862 ave 227290 max 224435 min
Histogram: 1 0 0 0 0 0 0 0 0 1

Total # of neighbors = 451725
Ave neighs/atom = 112.931
Neighbor list builds = 20000
Dangerous builds not checked
unfix     intnvt
unfix     rdfnvt
uncompute rdfnvt
uncompute msd
undump    idnvt

next      a
jump      in.melt temploop #it will again transfer the call to label temploop line
variable    a loop 11   #loop parameter defined
variable    temp equal 0.3+($a-1)*0.1   #temp value will increase at rate of 0.1 from 0.3 till 1.3
variable    temp equal 0.3+(5-1)*0.1   

log       log.lammps.npt.${temp}
log       log.lammps.npt.0.7
