thermo		${nthermo}
thermo		1000
thermo_style custom step pe ke etotal press temp vol density
dump		id all atom 1000 out.dump.npt.${temp}.lammpstrj
dump		id all atom 1000 out.dump.npt.0.5.lammpstrj
restart 100000 restartnvt1.data restartnvt2.data

fix 		intnpt all npt temp ${temp} ${temp} ${tdamp} iso ${pext} ${pext} ${pdamp}
fix 		intnpt all npt temp 0.5 ${temp} ${tdamp} iso ${pext} ${pext} ${pdamp}
fix 		intnpt all npt temp 0.5 0.5 ${tdamp} iso ${pext} ${pext} ${pdamp}
fix 		intnpt all npt temp 0.5 0.5 1 iso ${pext} ${pext} ${pdamp}
fix 		intnpt all npt temp 0.5 0.5 1 iso 1 ${pext} ${pdamp}
fix 		intnpt all npt temp 0.5 0.5 1 iso 1 1 ${pdamp}
fix 		intnpt all npt temp 0.5 0.5 1 iso 1 1 10
run		  100000
Neighbor list info ...
  update every 20 steps, delay 0 steps, check no
  max neighbors/atom: 2000, page size: 100000
  master list distance cutoff = 3.8
  ghost atom cutoff = 3.8
  binsize = 1.9, bins = 9 9 9
  1 neighbor lists, perpetual/occasional/extra = 1 0 0
  (1) pair lj/cut, perpetual
      attributes: half, newton on
      pair build: half/bin/atomonly/newton
      stencil: half/bin/3d/newton
      bin: standard
Per MPI rank memory allocation (min/avg/max) = 4.752 | 4.752 | 4.752 Mbytes
Step PotEng KinEng TotEng Press Temp Volume Density 
 1000000   -7.7001688   0.60543255   -7.0947362   0.86501791   0.40372263    3878.9689    1.0312019 
 1001000   -7.5298801   0.74755102   -6.7823291    1.0921223   0.49849197    3928.0093    1.0183275 
 1002000   -7.5258416   0.74115103   -6.7846905   0.94333374   0.49422424     3938.241    1.0156819 
 1003000   -7.4976063   0.75537459   -6.7422317    1.0356533   0.50370899    3942.8774    1.0144875 
 1004000    -7.519031   0.76071462   -6.7583164   0.93365752    0.5072699    3941.7155    1.0147866 
 1005000   -7.5270808   0.74743006   -6.7796507    1.0003382   0.49841131    3934.6528    1.0166081 
 1006000   -7.5142591   0.74681401   -6.7674451    1.0075994   0.49800051    3937.9336    1.0157612 
 1007000   -7.5100012    0.7593544   -6.7506468   0.97010349   0.50636286    3942.4913    1.0145869 
 1008000   -7.5001854   0.74082379   -6.7593616   0.96922286   0.49400603    3944.8431     1.013982 
 1009000   -7.5168706   0.75232708   -6.7645436    1.0413397   0.50167681    3935.6243    1.0163572 
 1010000   -7.5296545   0.74793417   -6.7817203   0.95874988   0.49874747    3936.0298    1.0162525 
 1011000   -7.5048078   0.74306398   -6.7617438    1.0432013   0.49549986    3939.0401    1.0154758 
 1012000   -7.5151895    0.7657872   -6.7494023   0.88931333   0.51065246    3946.1609    1.0136434 
 1013000   -7.5156514   0.74605846    -6.769593    1.1052289   0.49749668    3931.6464    1.0173855 
 1014000    -7.503042    0.7426506   -6.7603914   0.97771732   0.49522421    3944.2436    1.0141361 
 1015000     -7.52033   0.74920708   -6.7711229    1.1272435   0.49959628    3928.7246    1.0181421 
 1016000   -7.5175481   0.74369819   -6.7738499    0.8927355   0.49592277    3944.8371    1.0139836 
 1017000   -7.5018303    0.7483165   -6.7535138    1.1635543   0.49900241    3933.2975    1.0169584 
 1018000   -7.5039692   0.75588821    -6.748081     0.827323   0.50405149    3953.6222    1.0117305 
 1019000     -7.51036   0.73950429   -6.7708557    1.1615703   0.49312614    3930.5003    1.0176822 
 1020000   -7.5152231    0.7569561    -6.758267   0.91769264   0.50476359    3944.5439    1.0140589 
 1021000   -7.5250088   0.75902893   -6.7659799   0.92574193   0.50614582    3940.4078    1.0151234 
 1022000   -7.5233812   0.74583775   -6.7775435    1.0972737    0.4973495    3929.9587    1.0178224 
 1023000   -7.5196379    0.7559633   -6.7636746   0.96427789   0.50410156    3939.2153    1.0154307 
 1024000   -7.4895471   0.76239695   -6.7271502   0.98002266   0.50839173    3949.3752    1.0128184 
 1025000   -7.5269513   0.76216578   -6.7647855   0.93504133   0.50823758     3938.942    1.0155011 
 1026000   -7.5086995   0.73879243   -6.7699071    1.0267449   0.49265145    3939.0273    1.0154791 
 1027000   -7.5044883   0.75192173   -6.7525666   0.98808398   0.50140651    3943.3082    1.0143767 
 1028000   -7.5173266   0.75279547   -6.7645312    1.0221583   0.50198914    3936.6026    1.0161046 
 1029000   -7.5164619   0.73249242   -6.7839695    1.0285835   0.48845039    3935.4298    1.0164074 
 1030000   -7.5161431   0.75520756   -6.7609356    1.0120611   0.50359761    3937.9163    1.0157656 
 1031000   -7.5001392   0.75017609   -6.7499631   0.85341047   0.50024245    3952.8228    1.0119351 
 1032000   -7.5171259   0.75973012   -6.7573958    1.0721712    0.5066134    3934.0908    1.0167534 
 1033000   -7.5086378   0.74584475    -6.762793   0.96207764   0.49735417    3943.2783    1.0143844 
 1034000   -7.5238124   0.75894012   -6.7648723    1.0390939    0.5060866    3933.3445    1.0169463 
 1035000   -7.5094857   0.74809023   -6.7613955   0.95906169   0.49885154    3943.6527    1.0142881 
 1036000   -7.5175319    0.7572753   -6.7602566    1.0565313   0.50497645    3934.6425    1.0166108 
 1037000   -7.5244974    0.7537413   -6.7707561   0.91666753   0.50261986    3939.8552    1.0152657 
 1038000   -7.5051273   0.75336768   -6.7517597   0.99718893   0.50237071    3942.8324    1.0144991 
 1039000   -7.5017142   0.76617349   -6.7355408   0.96551502   0.51091005    3945.9077    1.0137085 
 1040000   -7.5182795    0.7544908   -6.7637887   0.92368329   0.50311965    3942.0543    1.0146994 
 1041000   -7.5225938    0.7513453   -6.7712485    1.1186928   0.50102212    3929.1059    1.0180433 
 1042000   -7.5039032   0.74186304   -6.7620401   0.93214557   0.49469904    3946.8114    1.0134763 
 1043000   -7.5223382   0.76604106   -6.7562971    1.0732869   0.51082175    3932.2364    1.0172328 
 1044000   -7.5007408   0.73421536   -6.7665254   0.94656269   0.48959931    3947.2815    1.0133556 
 1045000   -7.5117677   0.75076603   -6.7610016    1.1045048   0.50063585    3933.4389    1.0169219 
 1046000   -7.4943183   0.76462827     -6.72969   0.91752245   0.50987965    3951.4335    1.0122909 
 1047000   -7.5201596   0.74349171   -6.7766679   0.98720216   0.49578509    3937.4506    1.0158858 
 1048000   -7.5222563   0.76277593   -6.7594804   0.99848697   0.50864445    3937.1125     1.015973 
 1049000   -7.4986149   0.74516266   -6.7534522    1.0200748   0.49689933    3942.8645    1.0144909 
 1050000   -7.5140988   0.75445163   -6.7596472   0.91928251   0.50309353    3944.0861    1.0141766 
 1051000   -7.5369674   0.73207374   -6.8048936    1.0734345   0.48817121    3925.8731    1.0188816 
 1052000   -7.5214051   0.75914655   -6.7622586   0.88885388   0.50622426    3943.5908     1.014304 
 1053000   -7.4982828   0.75727679    -6.741006     1.012305   0.50497744     3944.005    1.0141975 
 1054000   -7.5071934   0.74521921   -6.7619742    0.9954248   0.49693704    3941.4925     1.014844 
 1055000   -7.5143844    0.7469709   -6.7674135    1.0276954   0.49810513    3937.1845    1.0159544 
 1056000   -7.4958757   0.73946225   -6.7564134    1.0077778   0.49309811    3944.1028    1.0141724 
 1057000   -7.5158176   0.76484489   -6.7509727    0.9847285    0.5100241    3940.5199    1.0150945 
 1058000   -7.5317951   0.73428129   -6.7975138    1.0425364   0.48964327    3929.5217    1.0179356 
 1059000   -7.5136999   0.74757398   -6.7661259    0.9518374   0.49850728    3941.8174    1.0147604 
 1060000   -7.4948658   0.75271671   -6.7421491   0.99588165   0.50193662    3946.0565    1.0136702 
 1061000   -7.5020497    0.7532463   -6.7488034    1.0356717   0.50228978    3940.3998    1.0151254 
 1062000   -7.5219533   0.75038437   -6.7715689    1.0076663   0.50038134    3935.5502    1.0163763 
 1063000   -7.5118929   0.74660873   -6.7652842   0.99370021   0.49786362    3939.6212     1.015326 
 1064000   -7.5158285   0.76553377   -6.7502947   0.97004207   0.51048347     3940.689    1.0150509 
 1065000   -7.5236806   0.75521669   -6.7684639   0.94154806   0.50360369    3938.9016    1.0155115 
 1066000   -7.5202855   0.75173866   -6.7685468    1.0266965   0.50128443    3935.7419    1.0163268 
 1067000   -7.5187239   0.73843448   -6.7802894   0.97740539   0.49241276    3938.3393    1.0156565 
 1068000   -7.5338451   0.77414008    -6.759705   0.92446011   0.51622244    3938.1798    1.0156977 
 1069000   -7.5082231   0.76166402   -6.7465591   0.94145245   0.50790299    3945.3493    1.0138519 
 1070000   -7.5158642   0.75016227   -6.7657019   0.96511379   0.50023324    3940.0762    1.0152088 
 1071000     -7.52443   0.76073242   -6.7636976    1.0141529   0.50728177    3934.2804    1.0167044 
 1072000     -7.49406   0.74784106    -6.746219   0.93425808   0.49868538    3949.6794    1.0127404 
 1073000    -7.514864   0.76025466   -6.7546094   0.98475679   0.50696318    3939.9936    1.0152301 
 1074000   -7.5437643   0.74832644   -6.7954379   0.95494341   0.49900904    3931.2165    1.0174967 
 1075000   -7.5164279   0.74836807   -6.7680598   0.97984052   0.49903681    3939.1683    1.0154428 
 1076000   -7.4962407   0.76669739   -6.7295433    0.9134798   0.51125941    3950.9148    1.0124238 
 1077000   -7.5084306   0.75433617   -6.7540945    1.0845114   0.50301654    3935.8187     1.016307 
 1078000   -7.5110022    0.7419939   -6.7690083    1.0273544    0.4947863    3938.0407    1.0157335 
 1079000   -7.5082756   0.75653711   -6.7517385   0.96489583   0.50448419    3943.2531    1.0143909 
 1080000   -7.5261569   0.74794393    -6.778213    1.0594876   0.49875398     3931.057     1.017538 
 1081000   -7.5065884   0.73934741    -6.767241   0.93157495   0.49302153    3945.0034    1.0139408 
 1082000    -7.514809   0.75750086   -6.7573081    1.1335155   0.50512685    3930.8926    1.0175806 
 1083000   -7.5234163   0.72588486   -6.7975314   0.93942607   0.48404425    3938.5601    1.0155996 
 1084000   -7.5023824    0.7530489   -6.7493335     1.099347   0.50215814    3937.0281    1.0159948 
 1085000   -7.5182129   0.73929668   -6.7789162   0.94920285    0.4929877    3939.9767    1.0152344 
 1086000   -7.5177289   0.74295803   -6.7747709    1.0577525   0.49542921    3933.0978      1.01701 
 1087000   -7.5110287   0.74384222   -6.7671865    1.0750277   0.49601882     3935.091    1.0164949 
 1088000   -7.4835465   0.76316013   -6.7203864    1.0357631   0.50890065    3947.9116    1.0131939 
 1089000    -7.518726   0.74427793   -6.7744481   0.95133954   0.49630937    3940.8644    1.0150058 
 1090000   -7.5139428   0.73952952   -6.7744133    1.1387809   0.49314297     3929.566    1.0179241 
 1091000   -7.5012217   0.74146329   -6.7597584   0.99839961   0.49443247    3942.8745    1.0144883 
 1092000   -7.5044961    0.7368968   -6.7675993   0.99108113   0.49138738     3941.792    1.0147669 
 1093000   -7.5432029   0.75735387    -6.785849     1.035296   0.50502884     3927.535    1.0184505 
 1094000   -7.5115904   0.73604762   -6.7755427   0.98274044   0.49082112    3940.5184    1.0150949 
 1095000   -7.5032815   0.75303993   -6.7502416    1.0652894   0.50215216    3938.5267    1.0156082 
 1096000   -7.5137105   0.75852761   -6.7551828   0.92116017   0.50581153    3944.0824    1.0141776 
 1097000   -7.5188441   0.75619323   -6.7626509    1.0249423   0.50425488    3935.9849    1.0162641 
 1098000   -7.5241384   0.74082947   -6.7833089    1.0054381   0.49400982    3934.3118    1.0166962 
 1099000    -7.510455   0.75090016   -6.7595548    1.0411681   0.50072529    3938.0053    1.0157427 
 1100000   -7.5019488   0.73727805   -6.7646707   0.95790017   0.49164161    3945.2548    1.0138762 
Loop time of 469.657 on 2 procs for 100000 steps with 4000 atoms

Performance: 91981.975 tau/day, 212.921 timesteps/s
99.3% CPU use with 2 MPI tasks x no OpenMP threads

MPI task timing breakdown:
Section |  min time  |  avg time  |  max time  |%varavg| %total
---------------------------------------------------------------
Pair    | 407.05     | 407.08     | 407.12     |   0.2 | 86.68
Neigh   | 40.234     | 40.293     | 40.353     |   0.9 |  8.58
Comm    | 11.156     | 11.262     | 11.367     |   3.2 |  2.40
Output  | 0.21259    | 0.21316    | 0.21372    |   0.1 |  0.05
Modify  | 9.6288     | 9.6353     | 9.6417     |   0.2 |  2.05
Other   |            | 1.172      |            |       |  0.25

Nlocal:    2000 ave 2005 max 1995 min
Histogram: 1 0 0 0 0 0 0 0 0 1
Nghost:    6602.5 ave 6608 max 6597 min
Histogram: 1 0 0 0 0 0 0 0 0 1
Neighs:    230828 ave 231087 max 230568 min
Histogram: 1 0 0 0 0 0 0 0 0 1

Total # of neighbors = 461655
Ave neighs/atom = 115.414
Neighbor list builds = 5000
Dangerous builds not checked
unfix   intnpt
undump  id

#Using Nvt to calculate the rdf and msd
compute   msd all msd average yes
compute   rdfnvt all rdf 100 1 1
fix       rdfnvt all ave/time ${Nevery} ${Nrepeat} ${Nfreq} c_rdfnvt[*] file systemnvt.rdf.${temp} mode vector
fix       rdfnvt all ave/time 1000 ${Nrepeat} ${Nfreq} c_rdfnvt[*] file systemnvt.rdf.${temp} mode vector
fix       rdfnvt all ave/time 1000 100 ${Nfreq} c_rdfnvt[*] file systemnvt.rdf.${temp} mode vector
fix       rdfnvt all ave/time 1000 100 100000 c_rdfnvt[*] file systemnvt.rdf.${temp} mode vector
fix       rdfnvt all ave/time 1000 100 100000 c_rdfnvt[*] file systemnvt.rdf.0.5 mode vector
log       log.lammps.nvt.${temp}
log       log.lammps.nvt.0.5
