thermo		${nthermo}
thermo		1000
thermo_style custom step pe ke etotal press temp vol density
dump		id all atom 1000 out.dump.npt.${temp}.lammpstrj
dump		id all atom 1000 out.dump.npt.0.7.lammpstrj
restart 100000 restartnvt1.data restartnvt2.data

fix 		intnpt all npt temp ${temp} ${temp} ${tdamp} iso ${pext} ${pext} ${pdamp}
fix 		intnpt all npt temp 0.7 ${temp} ${tdamp} iso ${pext} ${pext} ${pdamp}
fix 		intnpt all npt temp 0.7 0.7 ${tdamp} iso ${pext} ${pext} ${pdamp}
fix 		intnpt all npt temp 0.7 0.7 1 iso ${pext} ${pext} ${pdamp}
fix 		intnpt all npt temp 0.7 0.7 1 iso 1 ${pext} ${pdamp}
fix 		intnpt all npt temp 0.7 0.7 1 iso 1 1 ${pdamp}
fix 		intnpt all npt temp 0.7 0.7 1 iso 1 1 10
run		  100000
Neighbor list info ...
  update every 20 steps, delay 0 steps, check no
  max neighbors/atom: 2000, page size: 100000
  master list distance cutoff = 3.8
  ghost atom cutoff = 3.8
  binsize = 1.9, bins = 9 9 9
  1 neighbor lists, perpetual/occasional/extra = 1 0 0
  (1) pair lj/cut, perpetual
      attributes: half, newton on
      pair build: half/bin/atomonly/newton
      stencil: half/bin/3d/newton
      bin: standard
Per MPI rank memory allocation (min/avg/max) = 4.751 | 4.751 | 4.751 Mbytes
Step PotEng KinEng TotEng Press Temp Volume Density 
 2000000   -7.3058178   0.89345604   -6.4123617   0.85017873   0.59578631    4028.5933   0.99290242 
 2001000   -7.0894312    1.0356586   -6.0537726    1.0516417   0.69061174    4102.1506   0.97509828 
 2002000   -7.1024227    1.0559229   -6.0464998    1.1038285    0.7041246    4095.1368   0.97676834 
 2003000   -7.0610713    1.0417893    -6.019282    1.0065878   0.69469986    4117.3957   0.97148788 
 2004000   -7.0967273    1.0329092    -6.063818   0.99956696   0.68877834    4103.4124   0.97479843 
 2005000   -7.0985612    1.0673984   -6.0311628    1.0328277   0.71177687     4101.559   0.97523894 
 2006000   -7.0854123    1.0447592   -6.0406531   0.95089136   0.69668033    4111.9326    0.9727786 
 2007000   -7.0881088    1.0447851   -6.0433237    1.0282915   0.69669754    4106.4216    0.9740841 
 2008000   -7.0782109    1.0419233   -6.0362876     1.161369   0.69478922     4099.764   0.97566592 
 2009000   -7.0801159    1.0599542   -6.0201617   0.80893157   0.70681285    4124.6659   0.96977552 
 2010000   -7.1033385     1.050351   -6.0529875   0.90291132   0.70040907    4108.5318   0.97358381 
 2011000   -7.0626343    1.0627811   -5.9998532    1.1467873   0.70869788    4106.5608    0.9740511 
 2012000   -7.1104728    1.0522124   -6.0582605   0.93197417   0.70165032    4103.3402   0.97481559 
 2013000   -7.0869477    1.0340681   -6.0528795   0.85714872   0.68955113    4117.5499   0.97145149 
 2014000    -7.057043      1.04348    -6.013563    1.0211596   0.69582729    4116.8996   0.97160494 
 2015000   -7.0811686    1.0573801   -6.0237885     1.121751   0.70509635    4100.1444    0.9755754 
 2016000   -7.0804387    1.0512648   -6.0291738    0.9094042   0.70101849    4116.6416   0.97166583 
 2017000   -7.1057785    1.0567594   -6.0490191   0.99315271   0.70468247    4101.4541   0.97526387 
 2018000   -7.0799691    1.0583431    -6.021626   0.85545509   0.70573852    4120.3622   0.97078844 
 2019000   -7.0878548    1.0391521   -6.0487027   0.91892505   0.69294129    4110.8421   0.97303666 
 2020000   -7.1062335    1.0335959   -6.0726377   0.97536007   0.68923622    4100.5874   0.97547001 
 2021000   -7.0616142    1.0520021   -6.0096121    1.1305563    0.7015101    4107.9529   0.97372099 
 2022000   -7.0765044    1.0555348   -6.0209696    1.0716744   0.70386585    4105.5463   0.97429178 
 2023000   -7.0613943    1.0469778   -6.0144165   0.98928733   0.69815975    4118.1243   0.97131599 
 2024000   -7.0714112    1.0398254   -6.0315859   0.91904091   0.69339025     4118.647   0.97119273 
 2025000   -7.1014904    1.0619298   -6.0395606    1.0652882   0.70813026    4097.6023   0.97618064 
 2026000   -7.0802409    1.0479207   -6.0323202   0.92544768   0.69878848    4114.9021   0.97207659 
 2027000   -7.1004345    1.0256248   -6.0748097    0.8727208   0.68392085    4109.9984    0.9732364 
 2028000   -7.0677436    1.0719797    -5.995764    1.1672073   0.71483182    4104.2137   0.97460812 
 2029000   -7.1064487    1.0350865   -6.0713621   0.96479196   0.69023026    4100.9738    0.9753781 
 2030000   -7.0900323    1.0557556   -6.0342767   0.93579569   0.70401309    4110.9861   0.97300257 
 2031000   -7.0860733    1.0542803   -6.0317931    1.1039719   0.70302926    4100.3411    0.9755286 
 2032000    -7.086711    1.0544745   -6.0322366    1.0566473   0.70315876    4104.5532   0.97452752 
 2033000     -7.10225    1.0394457   -6.0628042    1.1006982   0.69313712    4093.4774    0.9771643 
 2034000   -7.0978528    1.0364496   -6.0614032    1.0145682    0.6911392    4100.7343   0.97543505 
 2035000   -7.0672831    1.0700874   -5.9971957   0.95908124   0.71356998    4118.3125   0.97127161 
 2036000   -7.1136116    1.0636587   -6.0499528    1.0027468   0.70928315    4097.7092   0.97615517 
 2037000   -7.0846744    1.0460502   -6.0386242   0.91554537   0.69754119    4113.9481   0.97230201 
 2038000   -7.0883039    1.0435126   -6.0447914   0.98369113   0.69584902    4106.3215   0.97410785 
 2039000   -7.1180959    1.0867252   -6.0313707    1.1521245   0.72466462    4085.7157   0.97902064 
 2040000   -7.1038894     1.061721   -6.0421684   0.97146389     0.707991    4104.1627   0.97462023 
 2041000   -7.0742221    1.0429773   -6.0312447    0.8400952   0.69549209     4123.058    0.9701537 
 2042000   -7.0848993    1.0425603    -6.042339    1.1361773   0.69521397    4098.1453   0.97605129 
 2043000   -7.0728962    1.0683292    -6.004567   0.93808859   0.71239756     4118.246   0.97128729 
 2044000   -7.0982262    1.0239862     -6.07424   0.96283431   0.68282819    4104.5563   0.97452676 
 2045000   -7.0794161    1.0865181    -5.992898   0.95870262   0.72452654    4115.5587   0.97192151 
 2046000   -7.1112933    1.0566459   -6.0546473   0.95072219   0.70460678    4102.0828    0.9751144 
 2047000   -7.0828488    1.0287381   -6.0541106   0.87861137   0.68599693    4116.5373   0.97169046 
 2048000   -7.0524292    1.0568687   -5.9955606   0.87242468    0.7047553    4131.3933   0.96819638 
 2049000   -7.0883912    1.0640019   -6.0243893    1.0184158   0.70951196    4106.0064    0.9741826 
 2050000   -7.0936367    1.0633282   -6.0303085    1.1778705   0.70906272    4093.7865   0.97709053 
 2051000   -7.0868556    1.0529741   -6.0338815   0.94123206   0.70215829    4112.7111   0.97259446 
 2052000   -7.0955683    1.0352041   -6.0603643     1.091141   0.69030864    4096.4788   0.97644837 
 2053000   -7.0611063    1.0526808   -6.0084255    1.0980755   0.70196269    4111.0381   0.97299024 
 2054000   -7.0994026    1.0259392   -6.0734634   0.84481071   0.68413052    4112.9897   0.97252857 
 2055000   -7.0841932      1.06359   -6.0206032   0.98076353    0.7092373    4111.2153   0.97294831 
 2056000    -7.085362    1.0538247   -6.0315374    1.0318282   0.70272545    4106.2349    0.9741284 
 2057000   -7.0790555    1.0570935    -6.021962    0.9177606   0.70490521    4116.6979   0.97165255 
 2058000   -7.0767296    1.0617894   -6.0149402    1.0795869   0.70803661    4105.9685   0.97419159 
 2059000   -7.1022114    1.0258592   -6.0763522    1.0848647   0.68407718    4095.3029   0.97672873 
 2060000   -7.0785992    1.0479967   -6.0306026    1.0511307   0.69883915    4106.6919   0.97401999 
 2061000   -7.0923136    1.0663817   -6.0259319   0.89338246   0.71109891    4113.6892    0.9723632 
 2062000   -7.0943405    1.0336349   -6.0607056    0.9097858   0.68926225    4110.3762   0.97314694 
 2063000   -7.0796175     1.047705   -6.0319125   0.98542134   0.69864467    4110.3722   0.97314788 
 2064000   -7.0872841    1.0651593   -6.0221248    1.2120603   0.71028379    4092.6509   0.97736164 
 2065000   -7.1034585    1.0376783   -6.0657802   0.99410799   0.69195853    4100.7817   0.97542379 
 2066000    -7.072209    1.0136635   -6.0585455    1.0050606   0.67594462    4111.0889   0.97297822 
 2067000   -7.0973325    1.0789506    -6.018382   0.99629224   0.71948024    4105.5124   0.97429983 
 2068000    -7.080395    1.0487233   -6.0316717     1.088735   0.69932369    4104.1554   0.97462197 
 2069000   -7.0811912    1.0423353   -6.0388558    1.0326614   0.69506398    4107.0938   0.97392468 
 2070000   -7.1033035    1.0582845    -6.045019   0.90994975   0.70569942    4108.3255   0.97363269 
 2071000   -7.0474837    1.0395176   -6.0079661    1.0167637   0.69318506    4120.7307   0.97070162 
 2072000   -7.0876747    1.0394135   -6.0482612   0.99258138    0.6931156    4107.9177   0.97372935 
 2073000   -7.1083026    1.0513749   -6.0569276    1.0399399   0.70109191    4097.1471   0.97628909 
 2074000   -7.0682706    1.0452361   -6.0230346   0.93740347    0.6969983    4119.0576   0.97109592 
 2075000   -7.0832002    1.0380935   -6.0451066   0.96500789   0.69223541    4111.2023   0.97295139 
 2076000   -7.1158915    1.0432973   -6.0725942   0.96383873   0.69570546    4098.3703   0.97599771 
 2077000   -7.0798759    1.0721884   -6.0076876    1.1750178   0.71497099     4098.989   0.97585037 
 2078000   -7.0744836    1.0474573   -6.0270262   0.94376315   0.69847952    4115.8123   0.97186162 
 2079000   -7.1040681    1.0347419   -6.0693262   0.96371025    0.6900004    4102.0509   0.97512197 
 2080000   -7.0911214    1.0400302   -6.0510913    1.0741383   0.69352682    4100.7672   0.97542724 
 2081000   -7.0813225    1.0529435    -6.028379   0.89563229   0.70213787    4117.4433   0.97147665 
 2082000   -7.0924033    1.0490129   -6.0433904    1.0954594   0.69951681    4099.0851    0.9758275 
 2083000    -7.093812     1.042666    -6.051146   0.92273861   0.69528451    4110.0807   0.97321691 
 2084000    -7.046495    1.0728069   -5.9736881   0.83042601   0.71538342    4137.3535   0.96680161 
 2085000   -7.1016937    1.0524575   -6.0492362   0.93457218   0.70181377    4107.5737   0.97381089 
 2086000   -7.0780327    1.0463024   -6.0317304    0.9118263   0.69770935    4116.7398   0.97164266 
 2087000   -7.0706349    1.0552624   -6.0153725    1.0064626   0.70368418    4113.2833   0.97245916 
 2088000   -7.0964277    1.0264403   -6.0699874    1.1247341   0.68446467    4094.1949   0.97699305 
 2089000   -7.0764431    1.0291866   -6.0472565     1.145158   0.68629599    4100.9879   0.97537474 
 2090000   -7.0518727    1.0646252   -5.9872475    1.0122008    0.7099276    4120.9925   0.97063997 
 2091000   -7.0977232    1.0456687   -6.0520546   0.98671018   0.69728676    4103.9171   0.97467857 
 2092000   -7.0649988    1.0438072   -6.0211916    0.8945772   0.69604551    4123.4506   0.97006134 
 2093000    -7.086325    1.0448718   -6.0414532     1.063782   0.69675539    4103.4472   0.97479018 
 2094000   -7.1165669    1.0574748    -6.059092   0.92879504   0.70515952    4102.1449   0.97509964 
 2095000   -7.0641897    1.0512036   -6.0129861   0.93047875   0.70097762    4121.9555    0.9704132 
 2096000   -7.1268203    1.0779894    -6.048831    1.0935934   0.71883929    4087.2216   0.97865993 
 2097000   -7.0878553    1.0485715   -6.0392838    1.0946883   0.69922248    4100.9423   0.97538559 
 2098000   -7.0702044    1.0285086   -6.0416958     0.842252   0.68584387    4122.9266   0.97018463 
 2099000   -7.1017864    1.0510257   -6.0507607   0.83825161   0.70085904    4113.4173   0.97242747 
 2100000   -7.0866588    1.0707337   -6.0159251    1.0797704   0.71400097    4103.2521   0.97483653 
Loop time of 378.341 on 2 procs for 100000 steps with 4000 atoms

Performance: 114182.852 tau/day, 264.312 timesteps/s
99.4% CPU use with 2 MPI tasks x no OpenMP threads

MPI task timing breakdown:
Section |  min time  |  avg time  |  max time  |%varavg| %total
---------------------------------------------------------------
Pair    | 326.51     | 326.71     | 326.92     |   1.1 | 86.35
Neigh   | 33.52      | 33.544     | 33.569     |   0.4 |  8.87
Comm    | 8.7045     | 8.9467     | 9.1889     |   8.1 |  2.36
Output  | 0.18604    | 0.18657    | 0.18709    |   0.1 |  0.05
Modify  | 7.9854     | 7.995      | 8.0046     |   0.3 |  2.11
Other   |            | 0.954      |            |       |  0.25

Nlocal:    2000 ave 2003 max 1997 min
Histogram: 1 0 0 0 0 0 0 0 0 1
Nghost:    6492.5 ave 6498 max 6487 min
Histogram: 1 0 0 0 0 0 0 0 0 1
Neighs:    221552 ave 222286 max 220818 min
Histogram: 1 0 0 0 0 0 0 0 0 1

Total # of neighbors = 443104
Ave neighs/atom = 110.776
Neighbor list builds = 5000
Dangerous builds not checked
unfix   intnpt
undump  id

#Using Nvt to calculate the rdf and msd
compute   msd all msd average yes
compute   rdfnvt all rdf 100 1 1
fix       rdfnvt all ave/time ${Nevery} ${Nrepeat} ${Nfreq} c_rdfnvt[*] file systemnvt.rdf.${temp} mode vector
fix       rdfnvt all ave/time 1000 ${Nrepeat} ${Nfreq} c_rdfnvt[*] file systemnvt.rdf.${temp} mode vector
fix       rdfnvt all ave/time 1000 100 ${Nfreq} c_rdfnvt[*] file systemnvt.rdf.${temp} mode vector
fix       rdfnvt all ave/time 1000 100 100000 c_rdfnvt[*] file systemnvt.rdf.${temp} mode vector
fix       rdfnvt all ave/time 1000 100 100000 c_rdfnvt[*] file systemnvt.rdf.0.7 mode vector
log       log.lammps.nvt.${temp}
log       log.lammps.nvt.0.7
