thermo		${nthermo}
thermo		1000
thermo_style custom step pe ke etotal press temp vol density
dump		id all atom 1000 out.dump.npt.${temp}.lammpstrj
dump		id all atom 1000 out.dump.npt.0.6.lammpstrj
restart 100000 restartnvt1.data restartnvt2.data

fix 		intnpt all npt temp ${temp} ${temp} ${tdamp} iso ${pext} ${pext} ${pdamp}
fix 		intnpt all npt temp 0.6 ${temp} ${tdamp} iso ${pext} ${pext} ${pdamp}
fix 		intnpt all npt temp 0.6 0.6 ${tdamp} iso ${pext} ${pext} ${pdamp}
fix 		intnpt all npt temp 0.6 0.6 1 iso ${pext} ${pext} ${pdamp}
fix 		intnpt all npt temp 0.6 0.6 1 iso 1 ${pext} ${pdamp}
fix 		intnpt all npt temp 0.6 0.6 1 iso 1 1 ${pdamp}
fix 		intnpt all npt temp 0.6 0.6 1 iso 1 1 10
run		  100000
Neighbor list info ...
  update every 20 steps, delay 0 steps, check no
  max neighbors/atom: 2000, page size: 100000
  master list distance cutoff = 3.8
  ghost atom cutoff = 3.8
  binsize = 1.9, bins = 9 9 9
  1 neighbor lists, perpetual/occasional/extra = 1 0 0
  (1) pair lj/cut, perpetual
      attributes: half, newton on
      pair build: half/bin/atomonly/newton
      stencil: half/bin/3d/newton
      bin: standard
Per MPI rank memory allocation (min/avg/max) = 4.752 | 4.752 | 4.752 Mbytes
Step PotEng KinEng TotEng Press Temp Volume Density 
 1500000   -7.5220769   0.73368109   -6.7883958   0.83848092   0.48924304    3945.2548    1.0138762 
 1501000   -7.3453741   0.91032825   -6.4350458    1.0561386   0.60703726    4001.3895   0.99965274 
 1502000   -7.3220403   0.89022617   -6.4318141    1.0607369   0.59363252    4008.9766   0.99776087 
 1503000    -7.294549   0.89954359   -6.3950054   0.92973663   0.59984569     4027.467   0.99318008 
 1504000   -7.3410078   0.91110838   -6.4298994    1.0158081   0.60755748    4005.4919   0.99862892 
 1505000   -7.2988831     0.875734   -6.4231491    1.0424346   0.58396866    4017.0539   0.99575463 
 1506000   -7.2934781   0.91308011    -6.380398   0.97939807   0.60887229    4025.2255   0.99373314 
 1507000    -7.313623   0.89488978   -6.4187332   0.98336618   0.59674237     4016.931    0.9957851 
 1508000   -7.3133061   0.89428095   -6.4190251    1.1871399   0.59633639    4003.3712   0.99915792 
 1509000   -7.3066184   0.88883822   -6.4177802   0.90841031   0.59270699    4024.6322   0.99387964 
 1510000   -7.3214576    0.9076041   -6.4138535    1.1184634   0.60522071    4005.2615   0.99868634 
 1511000    -7.299583   0.90502935   -6.3945537    1.0139188   0.60350378    4019.5404   0.99513866 
 1512000   -7.3224399   0.88691945   -6.4355205   0.86587276   0.59142749    4020.5066    0.9948995 
 1513000   -7.3157543   0.90042028    -6.415334    1.1331724   0.60043029    4006.8536   0.99828953 
 1514000   -7.2936657   0.88427862   -6.4093871   0.96681947    0.5896665    4024.6495   0.99387537 
 1515000   -7.3187607   0.91498673   -6.4037739   0.93292745   0.61014369    4019.6111   0.99512114 
 1516000   -7.3110638   0.88639814   -6.4246656    1.1541927   0.59107986     4006.296   0.99842848 
 1517000   -7.3226519   0.88534336   -6.4373085    0.8701827    0.5903765    4020.7905   0.99482926 
 1518000   -7.2912103   0.90865309   -6.3825572    1.0726275   0.60592021    4019.8658    0.9950581 
 1519000   -7.3097773   0.88594703   -6.4238302    1.1087394   0.59077905    4010.0641   0.99749028 
 1520000    -7.303201   0.89862852   -6.4045724   0.84951475   0.59923549    4029.6134   0.99265106 
 1521000   -7.3165542   0.90178225   -6.4147719    1.1522969    0.6013385    4004.2757   0.99893222 
 1522000   -7.3424843   0.92199408   -6.4204902   0.96199827   0.61481642    4007.8912   0.99803108 
 1523000    -7.294705   0.89498576   -6.3997193   0.95336389   0.59680637    4026.3521   0.99345508 
 1524000   -7.3228811   0.90599589   -6.4168852   0.91176272    0.6041483    4018.3414   0.99543557 
 1525000   -7.3200185   0.88358966   -6.4364289    1.1520677   0.58920707    4002.5544   0.99936181 
 1526000    -7.306977   0.89962127   -6.4073558     1.048585   0.59989749    4015.2073   0.99621258 
 1527000   -7.2944707   0.90792748   -6.3865432   0.86754671   0.60543634     4032.681   0.99189597 
 1528000   -7.3032066   0.89106797   -6.4121387   0.95179404   0.59419386    4022.3499   0.99444356 
 1529000   -7.3118328   0.93557645   -6.3762564    1.1897026    0.6238736     4004.847   0.99878972 
 1530000    -7.320867   0.89267095    -6.428196   0.85433055   0.59526278    4022.5746   0.99438802 
 1531000   -7.3261713   0.90338331    -6.422788   0.98112288   0.60240614    4012.2688   0.99694218 
 1532000   -7.3026221   0.90842247   -6.3941996    1.0202559   0.60576642    4018.3872   0.99542424 
 1533000   -7.3218621   0.89487258   -6.4269895    0.8800744    0.5967309    4020.4104    0.9949233 
 1534000   -7.3265998   0.89533965   -6.4312602    1.2238635   0.59704236    3996.3622    1.0009103 
 1535000   -7.3130746   0.89621501   -6.4168596     0.989279   0.59762608    4017.0962   0.99574413 
 1536000    -7.295747   0.90788131   -6.3878657   0.90825142   0.60540556     4028.091   0.99302623 
 1537000   -7.3034818   0.89895534   -6.4045265   0.99747127   0.59945342     4019.169   0.99523061 
 1538000   -7.3124819   0.88274966   -6.4297323    1.0512231   0.58864693    4011.5834   0.99711251 
 1539000   -7.3032806   0.88740389   -6.4158767   0.98608692   0.59175053    4020.1178   0.99499571 
 1540000   -7.3332415   0.90092376   -6.4323178    1.1199998   0.60076603    4001.0743   0.99973148 
 1541000    -7.316851   0.89243829   -6.4244127   0.97735005   0.59510764    4016.6901    0.9958448 
 1542000    -7.301797   0.91332516   -6.3884718   0.92377631    0.6090357    4025.7831   0.99359551 
 1543000   -7.3240341    0.9086679   -6.4153662    1.0405916   0.60593009    4009.3158   0.99767647 
 1544000   -7.3168799   0.89300089    -6.423879   0.99429643    0.5954828     4014.145   0.99647622 
 1545000   -7.2906565   0.90430113   -6.3863554    1.0254274   0.60301817    4022.1677   0.99448861 
 1546000   -7.3145202   0.89513605   -6.4193841   0.92109884    0.5969066    4020.5922   0.99487832 
 1547000   -7.3173352   0.90240261   -6.4149326    1.1797776   0.60175218    4001.8747   0.99953154 
 1548000   -7.3151218   0.87202281    -6.443099   0.82196574   0.58149392    4025.7534   0.99360284 
 1549000   -7.3078083   0.92675488   -6.3810534    1.0804309   0.61799109    4013.9257   0.99653066 
 1550000   -7.3124542   0.88099194   -6.4314623    1.0204211   0.58747483    4014.1692   0.99647021 
 1551000   -7.3032704   0.89642189   -6.4068485   0.97744418   0.59776404    4021.4194   0.99467368 
 1552000   -7.3105589   0.91362205   -6.3969369    1.1273507   0.60923367    4008.6967   0.99783054 
 1553000   -7.3282058   0.88799523   -6.4402105   0.87167634   0.59214486    4018.6156   0.99536765 
 1554000    -7.320531   0.91165322   -6.4088778    1.0261901   0.60792079     4011.717   0.99707931 
 1555000   -7.3326075   0.89114903   -6.4414585    1.0184957   0.59424791    4007.4101   0.99815089 
 1556000   -7.3120778    0.9108139    -6.401264   0.94793312    0.6073611    4019.5993   0.99512407 
 1557000   -7.3024575    0.9034041   -6.3990534    1.0786584      0.60242    4014.4721   0.99639501 
 1558000   -7.3195066   0.91129547   -6.4082111   0.96460632   0.60768224    4016.2713   0.99594865 
 1559000    -7.295828   0.90300346   -6.3928246   0.93730006   0.60215284    4026.7151   0.99336555 
 1560000   -7.3116943   0.89312745   -6.4185669   0.95616615   0.59556719    4018.6622   0.99535612 
 1561000   -7.3476863   0.88465753   -6.4630288    1.0210559   0.58991917    4000.8171   0.99979576 
 1562000   -7.3002118   0.89295036   -6.4072614    1.1803049    0.5954491    4008.3068    0.9979276 
 1563000   -7.3063671    0.8992125   -6.4071546   0.68913096   0.59962491    4039.2124   0.99029207 
 1564000   -7.3122037    0.9030149   -6.4091888    1.1352309   0.60216048    4007.1167   0.99822398 
 1565000   -7.2946585   0.88393066   -6.4107278    1.0547782   0.58943447     4018.849   0.99530986 
 1566000     -7.32246   0.89033489   -6.4321251   0.93799445   0.59370502    4016.0449   0.99600481 
 1567000   -7.2984108   0.90309505   -6.3953157    1.1017453   0.60221392    4014.7798   0.99631864 
 1568000   -7.3057498   0.91514381    -6.390606   0.98354861   0.61024843    4020.1639   0.99498432 
 1569000   -7.3110571   0.90890436   -6.4021527   0.89530203   0.60608776    4024.8074   0.99383637 
 1570000   -7.3187864   0.89596333    -6.422823    1.0304451   0.59745825    4011.4258   0.99715169 
 1571000   -7.3201508   0.91543592   -6.4047149   0.94446432   0.61044322    4017.7721   0.99557664 
 1572000   -7.2888564   0.90097764   -6.3878787     1.131692   0.60080196    4016.4522   0.99590381 
 1573000   -7.3278557   0.88680313   -6.4410526   0.92820658   0.59134992    4014.7871   0.99631684 
 1574000   -7.3084235   0.93167703   -6.3767465    1.0261902   0.62127334    4016.9715   0.99577504 
 1575000    -7.330734   0.88245907   -6.4482749   0.85760029   0.58845316    4017.9178   0.99554052 
 1576000   -7.3212747    0.9339107    -6.387364     1.026377   0.62276282    4012.4841   0.99688869 
 1577000   -7.3176679   0.89175391    -6.425914   0.97650308   0.59465127     4014.979   0.99626923 
 1578000   -7.3060264   0.89804684   -6.4079796   0.91057729   0.59884761    4024.0588   0.99402126 
 1579000   -7.3191038   0.90355473   -6.4155491    1.1661126   0.60252045    4002.2718   0.99943237 
 1580000   -7.3020012   0.88923099   -6.4127702   0.86366966    0.5929689    4027.9871   0.99305183 
 1581000   -7.3042705   0.89710114   -6.4071693    0.9864218   0.59821698    4019.7806    0.9950792 
 1582000   -7.3235471    0.9035203   -6.4200268    1.0901262   0.60249749    4005.8135   0.99854872 
 1583000   -7.3236524   0.88630528   -6.4373471    1.0388335   0.59101794    4008.6858   0.99783325 
 1584000   -7.3155794   0.90485656   -6.4107229   0.98480809   0.60338855    4016.4878   0.99589497 
 1585000   -7.3166654   0.90090778   -6.4157576    1.0221987   0.60075537    4012.7336   0.99682671 
 1586000   -7.2978805   0.89312592   -6.4047545   0.90270736   0.59556617    4027.0627    0.9932798 
 1587000   -7.3111035   0.90228509   -6.4088184    1.0821821   0.60167381    4010.8323   0.99729923 
 1588000   -7.3112993   0.91353535    -6.397764   0.95822476   0.60917586    4019.9447   0.99503856 
 1589000   -7.3239541   0.88680188   -6.4371523   0.89229234   0.59134909    4019.0331   0.99526426 
 1590000   -7.3066955   0.91866887   -6.3880267    1.1814513   0.61259906    4007.0904   0.99823053 
 1591000   -7.3297994   0.87007704   -6.4597223   0.83398069   0.58019641     4019.558    0.9951343 
 1592000   -7.3006433   0.92045409   -6.3801892    1.0687033   0.61378951    4016.4187   0.99591211 
 1593000   -7.3370762   0.89830112    -6.438775   0.90735117   0.59901717    4013.0617    0.9967452 
 1594000   -7.3131254   0.91589431   -6.3972311    0.9760825   0.61074889    4018.6624   0.99535607 
 1595000   -7.3112783   0.90460893   -6.4066694    1.0561925   0.60322343    4013.1529   0.99672254 
 1596000   -7.3239792   0.89141426   -6.4325649   0.89587205   0.59442478    4018.3302   0.99543836 
 1597000   -7.2946423   0.91401718   -6.3806251    0.9858524   0.60949716    4024.7431   0.99385226 
 1598000    -7.308778   0.90105857   -6.4077195    1.1375745   0.60085593    4008.6062   0.99785308 
 1599000   -7.3228375   0.89359032   -6.4292472   0.87206192   0.59587585    4021.0263   0.99477091 
 1600000   -7.2745522   0.90746695   -6.3670852     1.035281   0.60512925    4028.5933   0.99290242 
Loop time of 394.189 on 2 procs for 100000 steps with 4000 atoms

Performance: 109592.204 tau/day, 253.686 timesteps/s
99.4% CPU use with 2 MPI tasks x no OpenMP threads

MPI task timing breakdown:
Section |  min time  |  avg time  |  max time  |%varavg| %total
---------------------------------------------------------------
Pair    | 341.03     | 341.4      | 341.78     |   2.0 | 86.61
Neigh   | 34.267     | 34.305     | 34.343     |   0.7 |  8.70
Comm    | 8.7766     | 9.1285     | 9.4805     |  11.6 |  2.32
Output  | 0.17986    | 0.1804     | 0.18095    |   0.1 |  0.05
Modify  | 8.1754     | 8.1873     | 8.1993     |   0.4 |  2.08
Other   |            | 0.9824     |            |       |  0.25

Nlocal:    2000 ave 2000 max 2000 min
Histogram: 2 0 0 0 0 0 0 0 0 0
Nghost:    6521.5 ave 6523 max 6520 min
Histogram: 1 0 0 0 0 0 0 0 0 1
Neighs:    225911 ave 226032 max 225790 min
Histogram: 1 0 0 0 0 0 0 0 0 1

Total # of neighbors = 451822
Ave neighs/atom = 112.956
Neighbor list builds = 5000
Dangerous builds not checked
unfix   intnpt
undump  id

#Using Nvt to calculate the rdf and msd
compute   msd all msd average yes
compute   rdfnvt all rdf 100 1 1
fix       rdfnvt all ave/time ${Nevery} ${Nrepeat} ${Nfreq} c_rdfnvt[*] file systemnvt.rdf.${temp} mode vector
fix       rdfnvt all ave/time 1000 ${Nrepeat} ${Nfreq} c_rdfnvt[*] file systemnvt.rdf.${temp} mode vector
fix       rdfnvt all ave/time 1000 100 ${Nfreq} c_rdfnvt[*] file systemnvt.rdf.${temp} mode vector
fix       rdfnvt all ave/time 1000 100 100000 c_rdfnvt[*] file systemnvt.rdf.${temp} mode vector
fix       rdfnvt all ave/time 1000 100 100000 c_rdfnvt[*] file systemnvt.rdf.0.6 mode vector
log       log.lammps.nvt.${temp}
log       log.lammps.nvt.0.6
