thermo    ${nthermo}
thermo    1000
thermo_style custom step pe ke etotal press temp vol c_msd[4]
dump      idnvt all atom 1000 out.dump.nvt.${temp}.lammpstrj
dump      idnvt all atom 1000 out.dump.nvt.1.3.lammpstrj
restart   100000 restartnpt1.data restartnp2.data

fix       intnvt all nvt temp ${temp} ${temp} ${tdamp}
fix       intnvt all nvt temp 1.3 ${temp} ${tdamp}
fix       intnvt all nvt temp 1.3 1.3 ${tdamp}
fix       intnvt all nvt temp 1.3 1.3 1
run       400000
Neighbor list info ...
  update every 20 steps, delay 0 steps, check no
  max neighbors/atom: 2000, page size: 100000
  master list distance cutoff = 3.8
  ghost atom cutoff = 3.8
  binsize = 1.9, bins = 10 10 10
  2 neighbor lists, perpetual/occasional/extra = 1 1 0
  (1) pair lj/cut, perpetual
      attributes: half, newton on
      pair build: half/bin/atomonly/newton
      stencil: half/bin/3d/newton
      bin: standard
  (2) compute rdf, occasional, copy from (1)
      attributes: half, newton on
      pair build: copy
      stencil: none
      bin: none
Per MPI rank memory allocation (min/avg/max) = 4.739 | 4.739 | 4.739 Mbytes
Step PotEng KinEng TotEng Press Temp Volume c_msd[4] 
 5100000   -4.4747471    1.9575982   -2.5171489    1.0978692    1.3053918    5816.6111            0 
 5101000   -4.4907123    1.9687711   -2.5219413    1.0472941    1.3128423    5816.6111    1.9444385 
 5102000   -4.4499213    1.9558615   -2.4940598    1.2219118    1.3042337    5816.6111    3.6915005 
 5103000   -4.4714432    1.9308612    -2.540582    1.1101489    1.2875627    5816.6111    5.4014255 
 5104000     -4.52039    1.9599769   -2.5604131   0.93645916     1.306978    5816.6111    7.0108341 
 5105000   -4.5031702    1.9413747   -2.5617954   0.92742437    1.2945735    5816.6111    8.4059398 
 5106000   -4.5031453    1.9279379   -2.5752074   0.96796387    1.2856133    5816.6111    10.236756 
 5107000   -4.4774278    1.8757869   -2.6016408    1.0528153    1.2508373    5816.6111    12.013249 
 5108000   -4.5106546    1.9292934   -2.5813612   0.95587108    1.2865172    5816.6111    13.531435 
 5109000   -4.4767544    1.9191251   -2.5576292     1.066774    1.2797367    5816.6111    14.789519 
 5110000   -4.4704941      1.93327   -2.5372241    1.0436415    1.2891689    5816.6111    16.520006 
 5111000   -4.4911896    1.9703744   -2.5208153    1.0770108    1.3139114    5816.6111    18.185113 
 5112000   -4.4930493    1.9230311   -2.5700182    1.0218286    1.2823413    5816.6111    19.505339 
 5113000    -4.485712    1.9556253   -2.5300868    1.0612989    1.3040762    5816.6111     21.21235 
 5114000   -4.4801265    1.9399148   -2.5402117    1.0988856       1.2936    5816.6111    23.061612 
 5115000    -4.478241    1.9559455   -2.5222955    1.0780234    1.3042898    5816.6111     24.46443 
 5116000   -4.4871445    1.9613895    -2.525755    1.0417584      1.30792    5816.6111    25.939348 
 5117000   -4.4855274    1.9375894    -2.547938    1.1050512    1.2920493    5816.6111    27.992904 
 5118000   -4.5152485    1.9349766   -2.5802719   0.94777627     1.290307    5816.6111    29.697323 
 5119000   -4.5044015    1.9359029   -2.5684987   0.94841193    1.2909246    5816.6111     31.06191 
 5120000     -4.49076    1.9416345   -2.5491255   0.99518152    1.2947467    5816.6111    32.692367 
 5121000   -4.4976972    1.9318343   -2.5658629    1.0065131    1.2882116    5816.6111    34.909013 
 5122000   -4.4989386    1.9202666    -2.578672    0.9810298    1.2804978    5816.6111    36.527859 
 5123000   -4.4981079    1.9436487   -2.5544592    1.0316509    1.2960898    5816.6111    37.570777 
 5124000   -4.5097967    1.9130192   -2.5967775    0.9609465    1.2756651    5816.6111    38.481845 
 5125000     -4.49991    1.9278042   -2.5721058   0.98200818    1.2855242    5816.6111    39.701876 
 5126000   -4.5119079    1.9580937   -2.5538142   0.97618564    1.3057222    5816.6111     41.25971 
 5127000   -4.4938274    1.9533353   -2.5404921    1.0960524    1.3025492    5816.6111    42.400713 
 5128000   -4.4842548    1.9422178    -2.542037    1.0624404    1.2951357    5816.6111    44.305908 
 5129000   -4.4824723     1.948171   -2.5343013    1.0256414    1.2991055    5816.6111    45.867106 
 5130000   -4.4465475    1.9577661   -2.4887814    1.2232819    1.3055038    5816.6111    47.490953 
 5131000   -4.4632051    1.9540509   -2.5091542    1.1251978    1.3030263    5816.6111    48.843769 
 5132000   -4.4655565    1.9582189   -2.5073377    1.1430567    1.3058057    5816.6111    50.489483 
 5133000   -4.4905001    1.9945526   -2.4959475    1.0590047    1.3300343    5816.6111    52.347655 
 5134000   -4.4411494    1.9603953   -2.4807541    1.2588306     1.307257    5816.6111    54.488091 
 5135000   -4.4867847     1.992187   -2.4945977    1.0584252    1.3284568    5816.6111    56.528276 
 5136000   -4.4625471    1.9511792   -2.5113679    1.1857218    1.3011114    5816.6111     57.37197 
 5137000   -4.4751105    1.9642143   -2.5108962    1.1041679    1.3098037    5816.6111    58.263001 
 5138000   -4.4796269    1.9419547   -2.5376722    1.0669319    1.2949602    5816.6111    59.266463 
 5139000   -4.4944347    1.9762269   -2.5182078    1.0059676     1.317814    5816.6111     60.08484 
 5140000   -4.4979722    1.9459771   -2.5519951    0.9777246    1.2976425    5816.6111    61.971237 
 5141000   -4.5140903    1.9625378   -2.5515525   0.98603654    1.3086857    5816.6111    63.840345 
 5142000   -4.4920963    1.9281634   -2.5639328    1.0318613    1.2857637    5816.6111    65.582033 
 5143000   -4.5187997    1.8874227   -2.6313769   0.88266491    1.2585965    5816.6111    67.531212 
 5144000   -4.4609969    1.9206412   -2.5403557    1.1418644    1.2807476    5816.6111    69.119654 
 5145000   -4.4792376    1.9344136   -2.5448241    1.0484001    1.2899315    5816.6111    70.117349 
 5146000    -4.478703    1.9315111   -2.5471919    1.0381282     1.287996    5816.6111    71.079241 
 5147000   -4.4772437    1.9589381   -2.5183056    1.1342611    1.3062853    5816.6111    72.725296 
 5148000   -4.4830482     1.970501   -2.5125472    1.0710673    1.3139958    5816.6111    73.964425 
 5149000   -4.4886506     1.965438   -2.5232126    1.0463179    1.3106196    5816.6111    75.661242 
 5150000   -4.4848942    1.9558263   -2.5290679    1.1014637    1.3042103    5816.6111    77.405114 
 5151000    -4.483387    1.9593438   -2.5240432    1.0435791    1.3065559    5816.6111    79.029867 
 5152000   -4.4906658    1.9866579   -2.5040079    1.0609456    1.3247698    5816.6111     79.55353 
 5153000   -4.4665094    1.9865117   -2.4799976    1.0831717    1.3246723    5816.6111    80.828167 
 5154000   -4.4318776    1.9622671   -2.4696104    1.2819242    1.3085052    5816.6111    83.090158 
 5155000   -4.4803368    1.9646628    -2.515674    1.1274744    1.3101027    5816.6111    83.992459 
 5156000   -4.4762889    1.9744996   -2.5017893    1.1140609    1.3166622    5816.6111    85.156052 
 5157000   -4.4856087    2.0007232   -2.4848856    1.0966567     1.334149    5816.6111    86.021687 
 5158000   -4.4740804     1.985985   -2.4880954     1.079456    1.3243211    5816.6111    87.561063 
 5159000   -4.4876762    1.9693953   -2.5182808    1.0952341    1.3132585    5816.6111    88.756833 
 5160000   -4.5006408    1.9774999   -2.5231409    1.0084673    1.3186629    5816.6111    91.090829 
 5161000   -4.4869738    1.9659891   -2.5209847    1.0779492    1.3109872    5816.6111    92.525471 
 5162000   -4.4744864    1.9462714    -2.528215    1.0704524    1.2978387    5816.6111    93.980111 
 5163000   -4.4906578    1.9839167   -2.5067411    1.0005327    1.3229418    5816.6111    95.586347 
 5164000   -4.4967505    1.9777222   -2.5190283    1.0028711    1.3188112    5816.6111    97.512074 
 5165000   -4.4879675     1.949611   -2.5383565    1.0406661    1.3000657    5816.6111    99.035866 
 5166000   -4.4902536    1.9433499   -2.5469037    1.0504398    1.2958906    5816.6111    100.57907 
 5167000   -4.4553885    1.9417679   -2.5136206    1.1735365    1.2948357    5816.6111     102.9385 
 5168000    -4.501325    1.9605253   -2.5407997    1.0222548    1.3073437    5816.6111    105.13722 
 5169000   -4.5001573    1.9499497   -2.5502076   0.98666095    1.3002916    5816.6111    107.29818 
 5170000   -4.5002723    1.9409559   -2.5593164    1.0157775    1.2942942    5816.6111    109.46812 
 5171000   -4.4990541    1.8917692    -2.607285    1.0379289    1.2614948    5816.6111    110.37158 
 5172000    -4.465873    1.9236732   -2.5421998     1.108268    1.2827695    5816.6111    112.16326 
 5173000   -4.4637322    1.9257207   -2.5380115    1.1277699    1.2841348    5816.6111    114.38258 
 5174000   -4.5056023    1.9748159   -2.5307864    1.0165462    1.3168732    5816.6111    115.58621 
 5175000   -4.4798415     1.934775   -2.5450665    1.0192692    1.2901726    5816.6111    117.60909 
 5176000    -4.484513    1.9347142   -2.5497988    1.0543515     1.290132    5816.6111    119.45285 
 5177000   -4.4926448    1.9597394   -2.5329055    1.0377867    1.3068196    5816.6111    120.71374 
 5178000   -4.4658221    1.9523758   -2.5134462    1.1115198    1.3019094    5816.6111    121.16106 
 5179000   -4.4700966     1.969641   -2.5004556    1.1471371    1.3134224    5816.6111    121.86906 
 5180000   -4.4762775     2.009734   -2.4665435    1.1062952    1.3401577    5816.6111    123.99233 
 5181000   -4.4768185    1.9632764   -2.5135422      1.10933    1.3091782    5816.6111    125.64612 
 5182000   -4.4778881    1.9844411    -2.493447    1.1185518    1.3232916    5816.6111    127.62034 
 5183000    -4.476768    1.9892437   -2.4875243    1.1297387    1.3264941    5816.6111    130.43772 
 5184000   -4.4870493    1.9219999   -2.5650494    1.0465486    1.2816537    5816.6111    132.29371 
 5185000   -4.4973849    1.9380377   -2.5593473    1.0653246    1.2923482    5816.6111    133.75678 
 5186000   -4.4981826    1.9159365   -2.5822461    1.0185949    1.2776104    5816.6111    134.70091 
 5187000   -4.4881828     1.935052   -2.5531308    1.0491713    1.2903572    5816.6111    136.68955 
 5188000   -4.4979476    1.9387472   -2.5592004   0.95673591    1.2928214    5816.6111    138.68468 
 5189000   -4.4813062     1.912489   -2.5688172    1.0552814    1.2753115    5816.6111    140.31871 
 5190000   -4.5092303    1.9221586   -2.5870717   0.97788599    1.2817595    5816.6111    142.18439 
 5191000   -4.4994774    1.8917105   -2.6077669   0.94382343    1.2614557    5816.6111    143.74121 
 5192000   -4.5006938    1.9229037   -2.5777901   0.95737194    1.2822564    5816.6111    145.02786 
 5193000   -4.4999049    1.9459895   -2.5539154   0.94755281    1.2976508    5816.6111    147.57904 
 5194000   -4.4963381     1.891861   -2.6044771    1.0138031    1.2615561    5816.6111     149.0915 
 5195000   -4.4940038    1.9038729   -2.5901309   0.99710715     1.269566    5816.6111    150.98166 
 5196000   -4.5028481    1.9294291    -2.573419    1.0208209    1.2866077    5816.6111    152.51391 
 5197000   -4.5026484    1.9347873   -2.5678611   0.99109792    1.2901808    5816.6111    153.32982 
 5198000   -4.4802487    1.9416571   -2.5385916    1.0651212    1.2947618    5816.6111    154.79889 
 5199000   -4.4901149    1.9606101   -2.5295048    1.0335569    1.3074003    5816.6111    156.69877 
 5200000   -4.4940599     1.954884   -2.5391759   0.94803436    1.3035819    5816.6111    158.25798 
 5201000    -4.472855    1.9430331   -2.5298219     1.121186    1.2956793    5816.6111    160.27529 
 5202000   -4.4814864    1.9384086   -2.5430778    1.0934331    1.2925956    5816.6111    162.31492 
 5203000    -4.478787     1.946225    -2.532562    1.0486989    1.2978078    5816.6111    163.99155 
 5204000   -4.4751927    1.9470328   -2.5281599    1.1134539    1.2983464    5816.6111    165.85981 
 5205000   -4.4824023    1.9824955   -2.4999068    1.0499842    1.3219941    5816.6111    168.45146 
 5206000   -4.5016641    1.9636088   -2.5380553    1.0019074    1.3093999    5816.6111    170.30133 
 5207000   -4.4699597    1.9187468    -2.551213    1.1182712    1.2794844    5816.6111    171.51996 
 5208000   -4.4605016     1.951172   -2.5093295    1.1379796    1.3011066    5816.6111    173.03743 
 5209000   -4.4716904    1.9567347   -2.5149557    1.1495262     1.304816    5816.6111    174.85555 
 5210000   -4.4760114    1.9531805   -2.5228309    1.1384036    1.3024459    5816.6111    177.06546 
 5211000   -4.4911371    1.9496969   -2.5414402   0.98380613     1.300123    5816.6111    177.98066 
 5212000   -4.4843313    1.9285959   -2.5557354     1.067972    1.2860521    5816.6111    179.59429 
 5213000   -4.4963483    1.9411023   -2.5552459    1.0241171    1.2943918    5816.6111    181.05321 
 5214000   -4.5180865    1.8819671   -2.6361194   0.94471286    1.2549585    5816.6111    182.82477 
 5215000   -4.4857111    1.9443703   -2.5413407    1.0181931     1.296571    5816.6111    184.26125 
 5216000   -4.4852336    1.9436512   -2.5415824    1.0834249    1.2960915    5816.6111    186.05032 
 5217000   -4.4895996    1.9972239   -2.4923757    1.0473917    1.3318156    5816.6111    187.26787 
 5218000    -4.477682    1.9938595   -2.4838225     1.117394    1.3295721    5816.6111    188.99494 
 5219000   -4.4552856    1.9460596   -2.5092259    1.1643098    1.2976975    5816.6111    190.62299 
 5220000   -4.4885682    1.9696458   -2.5189225    1.0208015    1.3134255    5816.6111    191.25694 
 5221000   -4.5050341     1.983373   -2.5216611     1.027608    1.3225793    5816.6111    192.04977 
 5222000   -4.4759771    1.9592115   -2.5167656    1.1035968    1.3064676    5816.6111    193.46763 
 5223000   -4.4729012     1.959834   -2.5130672    1.1035705    1.3068827    5816.6111    195.38772 
 5224000    -4.463717    1.9832837   -2.4804333    1.1290619    1.3225198    5816.6111    196.97041 
 5225000   -4.4857922    1.9940943   -2.4916979     1.095514    1.3297286    5816.6111    199.29442 
 5226000    -4.485025    1.9505216   -2.5345035    1.0913517    1.3006729    5816.6111    200.99494 
 5227000   -4.4810375    1.9830164   -2.4980211    1.1153674    1.3223415    5816.6111    202.57493 
 5228000   -4.4691571    1.9429089   -2.5262482    1.0962053    1.2955965    5816.6111    204.24984 
 5229000   -4.4956371    1.9579122   -2.5377249    1.0115463    1.3056012    5816.6111    205.59133 
 5230000   -4.4836087    1.9750771   -2.5085316    1.0444489    1.3170473    5816.6111    208.59242 
 5231000    -4.485347    1.9662798   -2.5190672    1.0437242     1.311181    5816.6111    210.09192 
 5232000   -4.4792499    1.9546548   -2.5245951    1.0929346    1.3034291    5816.6111     211.6365 
 5233000   -4.4732828    1.9705047   -2.5027781     1.061175    1.3139983    5816.6111    212.86739 
 5234000   -4.5036034    1.9665289   -2.5370745    1.0006048    1.3113471    5816.6111    215.37761 
 5235000   -4.5026938    1.9747502   -2.5279436   0.98979523    1.3168293    5816.6111    216.68105 
 5236000   -4.4915256    1.9696401   -2.5218855    1.0629175    1.3134218    5816.6111    217.72892 
 5237000   -4.4831522    1.9812253   -2.5019269    1.1016164    1.3211471    5816.6111    219.30063 
 5238000   -4.4322386    1.9714119   -2.4608267     1.272218    1.3146032    5816.6111    219.86387 
 5239000   -4.4849019    1.9537244   -2.5311774    1.0486677    1.3028087    5816.6111    221.78229 
 5240000   -4.5038092    1.9557536   -2.5480556    1.0021937    1.3041618    5816.6111    223.38873 
 5241000   -4.4719914    1.9170815   -2.5549099    1.1039752    1.2783739    5816.6111     224.2001 
 5242000   -4.4897853    1.9544625   -2.5353228    1.0610567    1.3033008    5816.6111    225.05365 
 5243000   -4.4700455    1.9205501   -2.5494954    1.0999688    1.2806869    5816.6111    226.84988 
 5244000   -4.5092174    1.9524199   -2.5567975   0.91046369    1.3019387    5816.6111    227.54372 
 5245000   -4.5150851    1.9432951     -2.57179   0.98026666     1.295854    5816.6111    228.79673 
 5246000   -4.4794621    1.9351619   -2.5443002     1.100105    1.2904305    5816.6111    230.65455 
 5247000   -4.4719683    1.9541545   -2.5178138      1.10203    1.3030955    5816.6111    232.38802 
 5248000   -4.4717211    1.9476067   -2.5241144    1.1199462    1.2987292    5816.6111     234.6876 
 5249000   -4.4866172    1.9797304   -2.5068868    1.0828165    1.3201503    5816.6111    236.03922 
 5250000   -4.4846094    1.9926753   -2.4919341    1.0581248    1.3287824    5816.6111    237.12745 
 5251000   -4.4855425    1.9740393   -2.5115032    1.0649088    1.3163553    5816.6111    239.27238 
 5252000   -4.5056624    1.9730668   -2.5325956    1.0346796    1.3157068    5816.6111    240.62024 
 5253000   -4.4992984    1.9574491   -2.5418493    1.0369614    1.3052924    5816.6111    241.80594 
 5254000   -4.4870556    1.9282872   -2.5587685     1.012046    1.2858463    5816.6111    242.48086 
 5255000   -4.5005603    1.9221522    -2.578408   0.99989884    1.2817553    5816.6111    244.20669 
 5256000   -4.4709117    1.9236679   -2.5472438    1.1039778     1.282766    5816.6111    245.28196 
 5257000   -4.4710645    1.9318551   -2.5392094    1.1004592    1.2882255    5816.6111    247.19312 
 5258000   -4.4660302     1.958778   -2.5072523    1.2109719    1.3061785    5816.6111    248.47532 
 5259000   -4.4683615    1.9556803   -2.5126812    1.0923695    1.3041129    5816.6111    249.73064 
 5260000   -4.4807708    1.9699887    -2.510782    1.0699081    1.3136542    5816.6111    252.09308 
 5261000   -4.4561733    1.9354275   -2.5207457    1.2246746    1.2906077    5816.6111     255.0031 
 5262000   -4.4764711    1.9469741   -2.5294969    1.1111042    1.2983073    5816.6111    257.85966 
 5263000   -4.4857395    1.9414649   -2.5442746    1.0689914    1.2946336    5816.6111    259.20248 
 5264000   -4.4614823    1.9393433    -2.522139    1.1632138    1.2932188    5816.6111    261.63308 
 5265000   -4.4739078    1.9603883   -2.5135195    1.1395038    1.3072523    5816.6111    263.10663 
 5266000   -4.4719317    1.9406706   -2.5312611    1.0855846    1.2941039    5816.6111    263.30079 
 5267000   -4.4739847    1.9702014   -2.5037833    1.1067032     1.313796    5816.6111    264.69565 
 5268000   -4.4954747    1.9030354   -2.5924392   0.97277351    1.2690076    5816.6111      266.384 
 5269000   -4.4881698    1.9094407   -2.5787291      1.02283    1.2732788    5816.6111    268.42888 
 5270000   -4.4712464    1.9139368   -2.5573096    1.0688491    1.2762769    5816.6111    269.89336 
 5271000   -4.4953548    1.9639505   -2.5314043    1.0434982    1.3096277    5816.6111    271.29752 
 5272000   -4.4830591    1.9793993   -2.5036598    1.0623821    1.3199295    5816.6111    273.13666 
 5273000   -4.4548541    1.9397308   -2.5151233    1.1442856    1.2934772    5816.6111    273.96327 
 5274000   -4.4668216    1.9622394   -2.5045822    1.0966937    1.3084867    5816.6111    275.57222 
 5275000   -4.4607899    1.9372434   -2.5235465    1.1051556    1.2918186    5816.6111    277.55341 
 5276000   -4.4909991    1.9638019   -2.5271972    1.0234148    1.3095286    5816.6111     279.8899 
 5277000   -4.4949907    1.9933404   -2.5016503     1.026674    1.3292259    5816.6111    281.78546 
 5278000   -4.4794593     1.944699   -2.5347602    1.0233515    1.2967902    5816.6111    283.87431 
 5279000   -4.4861825    1.9597417   -2.5264407    1.0558449    1.3068212    5816.6111    285.96369 
 5280000   -4.4818644    1.9774587   -2.5044057    1.1273123    1.3186355    5816.6111    286.75808 
 5281000   -4.4973287     1.963936   -2.5333927   0.97937916    1.3096181    5816.6111    287.86326 
 5282000   -4.5142119    1.9293828   -2.5848291   0.95858418    1.2865768    5816.6111    289.76044 
 5283000   -4.5208768    1.9086805   -2.6121964   0.94373398    1.2727718    5816.6111    290.43033 
 5284000   -4.4955996    1.9154466    -2.580153    1.0211717    1.2772837    5816.6111    292.80485 
 5285000   -4.4983377     1.942812   -2.5555258   0.99631983    1.2955319    5816.6111    293.41977 
 5286000   -4.4809203    1.9370673   -2.5438529    1.0836786    1.2917011    5816.6111    294.95655 
 5287000   -4.5113342    1.9454027   -2.5659315    0.9762104    1.2972595    5816.6111    295.38783 
 5288000   -4.5051025      1.95433   -2.5507724   0.95752643    1.3032125    5816.6111     297.1261 
 5289000   -4.4976813    1.9130846   -2.5845967    1.0135716    1.2757087    5816.6111    298.68963 
 5290000   -4.5055652    1.9512041   -2.5543611    1.0294626     1.301128    5816.6111    300.21665 
 5291000   -4.4969555     1.941107   -2.5558485    1.0182645    1.2943949    5816.6111     301.4874 
 5292000   -4.5026705    1.9356672   -2.5670032    1.0259783    1.2907675    5816.6111    304.37346 
 5293000   -4.4806787    1.9038108   -2.5768678   0.99973798    1.2695246    5816.6111    306.24242 
 5294000   -4.4724215    1.9548438   -2.5175777    1.1688087    1.3035551    5816.6111     307.4411 
 5295000    -4.479928    1.9621114   -2.5178166    1.0815052    1.3084014    5816.6111    308.99213 
 5296000   -4.5089225    1.9098837   -2.5990388   0.94263812    1.2735742    5816.6111    310.44916 
 5297000   -4.5104869    1.9345878   -2.5758991   0.97150198    1.2900477    5816.6111     311.2544 
 5298000   -4.5024751    1.9390881   -2.5633871     1.015612    1.2930486    5816.6111     313.5745 
 5299000   -4.4917332    1.9331087   -2.5586245   0.99217572    1.2890614    5816.6111     315.7027 
 5300000   -4.5050614    1.9507902   -2.5542711   0.93724478     1.300852    5816.6111    316.50268 
 5301000   -4.5020695    1.9122865   -2.5897829   0.99125631    1.2751765    5816.6111    318.23284 
 5302000   -4.5113828    1.9148159   -2.5965669   0.97121124    1.2768631    5816.6111    319.03224 
 5303000   -4.4853204    1.9208055   -2.5645149     1.069961    1.2808572    5816.6111    319.92912 
 5304000   -4.5050242    1.9451114   -2.5599128   0.94463293    1.2970652    5816.6111    322.29971 
 5305000   -4.4820995    1.9048528   -2.5772467    1.0847818    1.2702194    5816.6111     322.5297 
 5306000    -4.511178    1.9383478   -2.5728302   0.92451447     1.292555    5816.6111    322.77496 
 5307000     -4.50397     1.942441    -2.561529    1.0067092    1.2952845    5816.6111    324.21893 
 5308000   -4.4859722    1.9741142    -2.511858     1.103933    1.3164052    5816.6111    324.87949 
 5309000   -4.4668428    1.9536724   -2.5131704    1.1385204    1.3027739    5816.6111     326.0364 
 5310000   -4.4824366    1.9716263   -2.5108103    1.0445971    1.3147462    5816.6111    327.45866 
 5311000   -4.4841718    1.9832278    -2.500944    1.0854338    1.3224825    5816.6111    328.37806 
 5312000   -4.4982435    2.0067986   -2.4914449    1.0117516    1.3382003    5816.6111    330.07597 
 5313000   -4.5099927    2.0063375   -2.5036552   0.96138157    1.3378928    5816.6111    332.43557 
 5314000   -4.4937979    1.9561288   -2.5376692    1.0512389    1.3044119    5816.6111    333.20392 
 5315000   -4.4684977    1.9412248   -2.5272729    1.1290143    1.2944735    5816.6111    335.26437 
 5316000   -4.4966676    1.9559623   -2.5407054    1.0386556    1.3043009    5816.6111    336.95944 
 5317000   -4.5019657     1.978063   -2.5239028    1.0304099    1.3190384    5816.6111    339.42346 
 5318000     -4.49273    1.9644044   -2.5283256    1.0368237    1.3099304    5816.6111    342.21184 
 5319000   -4.4773497    1.9714187    -2.505931    1.0971062    1.3146078    5816.6111    343.98295 
 5320000   -4.4867047     1.988394   -2.4983107    1.0528648    1.3259275    5816.6111    345.81718 
 5321000   -4.4989494    1.9648229   -2.5341265    1.0404405    1.3102095    5816.6111    347.08643 
 5322000   -4.4876946    1.9668596   -2.5208351    1.1225142    1.3115676    5816.6111    349.14085 
 5323000   -4.4547487    1.9321652   -2.5225835    1.1660437    1.2884323    5816.6111    350.96934 
 5324000    -4.504106    1.9385097   -2.5655963   0.98932447     1.292663    5816.6111    353.56189 
 5325000   -4.4922061    1.9343676   -2.5578386    1.0033751    1.2899009    5816.6111    355.32238 
 5326000   -4.4920886    1.9648525   -2.5272361    1.0218685    1.3102292    5816.6111    356.31332 
 5327000    -4.499772    1.9323929   -2.5673791    1.0247191    1.2885841    5816.6111    358.16575 
 5328000   -4.4875383    1.9346317   -2.5529065    1.0546776     1.290077    5816.6111    361.51155 
 5329000   -4.5092939    1.9823699   -2.5269241   0.98310573    1.3219104    5816.6111    363.03594 
 5330000   -4.4815926    1.9514119   -2.5301807    1.0817743    1.3012666    5816.6111    363.59974 
 5331000    -4.478489    1.9399114   -2.5385776    1.0834739    1.2935977    5816.6111    365.43469 
 5332000   -4.4755354    1.9351439   -2.5403916    1.0832434    1.2904185    5816.6111    366.91985 
 5333000   -4.5040763    1.9892354   -2.5148409   0.93246018    1.3264886    5816.6111    368.94067 
 5334000   -4.4811564    1.9761485   -2.5050079     1.051853    1.3177618    5816.6111    370.21169 
 5335000   -4.4682092    1.9752047   -2.4930045    1.1815517    1.3171324    5816.6111    372.48194 
 5336000   -4.4671301    2.0002071   -2.4669229    1.1637637    1.3338049    5816.6111    372.89397 
 5337000   -4.4799649    1.9766019   -2.5033629    1.1231659    1.3180641    5816.6111    374.75489 
 5338000   -4.4799575    1.9677975     -2.51216    1.0608092    1.3121931    5816.6111    377.13025 
 5339000   -4.5214465    1.9990059   -2.5224406   0.96046402    1.3330039    5816.6111    380.23558 
 5340000    -4.507398    1.9360536   -2.5713444   0.99929659    1.2910251    5816.6111    380.29256 
 5341000   -4.4882859    1.9237561   -2.5645298   0.99027086    1.2828247    5816.6111    381.81555 
 5342000   -4.4808017    1.9564068   -2.5243949    1.0836689    1.3045974    5816.6111    383.75951 
 5343000   -4.4502695     1.949228   -2.5010415    1.2308485    1.2998103    5816.6111    385.09959 
 5344000   -4.4804269    1.9383502   -2.5420768    1.0620458    1.2925566    5816.6111    387.51083 
 5345000   -4.5007637    1.9373541   -2.5634096   0.92880442    1.2918924    5816.6111    388.74596 
 5346000   -4.5202671    1.9319815   -2.5882856   0.91294157    1.2883097    5816.6111    390.09078 
 5347000   -4.5003859    1.9197512   -2.5806347   0.94713609    1.2801542    5816.6111    391.61763 
 5348000    -4.479246    1.9578204   -2.5214255    1.1210137      1.30554    5816.6111    392.59835 
 5349000   -4.4923829    1.9805202   -2.5118627    1.0853829     1.320677    5816.6111    394.00559 
 5350000    -4.463967    1.9370066   -2.5269604    1.1161792    1.2916607    5816.6111    395.50717 
 5351000   -4.4811663    1.9769206   -2.5042457    1.0717287    1.3182766    5816.6111    396.95233 
 5352000   -4.4872773    1.9475648   -2.5397125    1.0762203    1.2987012    5816.6111     398.3155 
 5353000   -4.5076566    1.9718061   -2.5358505   0.97157305    1.3148661    5816.6111    399.80994 
 5354000   -4.4816387    1.9323695   -2.5492692    1.1071086    1.2885685    5816.6111    400.62769 
 5355000   -4.4867634    1.9446538   -2.5421096    1.0623106    1.2967601    5816.6111    402.04405 
 5356000   -4.4656875    1.9205535   -2.5451341    1.1330999    1.2806892    5816.6111    404.32617 
 5357000   -4.4602725    1.9270366   -2.5332359     1.118934    1.2850123    5816.6111    406.10068 
 5358000   -4.4878805    1.9894756   -2.4984049     1.054657    1.3266487    5816.6111    406.85329 
 5359000   -4.4628376     1.934304   -2.5285336    1.1617869    1.2898585    5816.6111    407.90807 
 5360000   -4.4683606    1.9624286   -2.5059321    1.1026371    1.3086129    5816.6111    409.17186 
 5361000   -4.4976323    2.0041702   -2.4934621    1.0648733    1.3364476    5816.6111    410.67592 
 5362000   -4.5108583    1.9838013    -2.527057   0.98583443    1.3228649    5816.6111    411.95121 
 5363000   -4.4828638    1.9807614   -2.5021025    1.0654889    1.3208378    5816.6111    414.35396 
 5364000   -4.4762936     1.943009   -2.5332846    1.0979015    1.2956632    5816.6111    415.24223 
 5365000   -4.4802155    1.9566458   -2.5235697    1.0962652    1.3047567    5816.6111    416.96925 
 5366000   -4.5028415    1.9367188   -2.5661227   0.94656058    1.2914687    5816.6111    419.31197 
 5367000   -4.5233785    1.9302043   -2.5931742   0.82964145    1.2871247    5816.6111    420.36891 
 5368000   -4.4913741    1.9342928   -2.5570812    1.0537469     1.289851    5816.6111     420.8301 
 5369000   -4.4843849    1.9490926   -2.5352923    1.0448374      1.29972    5816.6111    422.21932 
 5370000   -4.4831035    1.9748635     -2.50824    1.1022224    1.3169049    5816.6111     424.8332 
 5371000   -4.4774557    1.9716805   -2.5057752     1.104359    1.3147823    5816.6111    428.48902 
 5372000   -4.4882802    2.0099249   -2.4783552    1.0227733     1.340285    5816.6111    430.97392 
 5373000   -4.5056466    2.0155061   -2.4901404   0.99543967    1.3440068    5816.6111    433.31327 
 5374000   -4.4769481    1.9725652   -2.5043829     1.092432    1.3153723    5816.6111    434.81207 
 5375000   -4.4815012    1.9596252   -2.5218759      1.03187    1.3067435    5816.6111    436.06227 
 5376000   -4.4874667    1.9539805   -2.5334862    1.0707234    1.3029794    5816.6111    436.33891 
 5377000   -4.4895887    1.9249587     -2.56463    1.0252447    1.2836267    5816.6111    438.12783 
 5378000   -4.5034255    1.9350511   -2.5683744    1.0247085    1.2903566    5816.6111    439.89571 
 5379000   -4.4777573    1.9681307   -2.5096266    1.0686986    1.3124152    5816.6111    442.54732 
 5380000   -4.4578775    1.9646993   -2.4931782    1.1703076    1.3101271    5816.6111    443.81296 
 5381000   -4.4855096    1.9675294   -2.5179802    1.0457701    1.3120143    5816.6111     445.3821 
 5382000   -4.5145632    1.9841841   -2.5303791   0.93369947    1.3231202    5816.6111    446.34574 
 5383000   -4.4586626    1.9585891   -2.5000735    1.1426875    1.3060526    5816.6111    447.67012 
 5384000   -4.4926529    1.9765109    -2.516142    1.0612463    1.3180034    5816.6111    450.00862 
 5385000   -4.4678075     1.941551   -2.5262565    1.0939714     1.294691    5816.6111    453.69665 
 5386000   -4.5174567    1.9988493   -2.5186074   0.96621255    1.3328995    5816.6111    455.83007 
 5387000   -4.4729257    1.9325892   -2.5403366    1.1476448     1.288715    5816.6111    458.56589 
 5388000   -4.4884157    1.9661327   -2.5222831    1.0847244    1.3110829    5816.6111    460.66916 
 5389000   -4.4598283    1.9653161   -2.4945122    1.2063935    1.3105384    5816.6111    463.50103 
 5390000   -4.4720788     1.946896   -2.5251828    1.1278246    1.2982552    5816.6111    464.47178 
 5391000    -4.505582    1.9780934   -2.5274886   0.96015052    1.3190587    5816.6111    465.47166 
 5392000   -4.4630827    1.9642462   -2.4988365    1.1727961    1.3098249    5816.6111     465.6517 
 5393000   -4.4923931    1.9646193   -2.5277738    1.0193527    1.3100737    5816.6111    467.65836 
 5394000   -4.4656155    1.9673771   -2.4982384    1.2010126    1.3119127    5816.6111    469.64267 
 5395000   -4.4760673    1.9462171   -2.5298502     1.120672    1.2978025    5816.6111    471.54174 
 5396000     -4.49749    1.9592805   -2.5382096   0.93861068    1.3065136    5816.6111    471.73305 
 5397000   -4.4558957    1.9322605   -2.5236353     1.131171    1.2884958    5816.6111    474.24607 
 5398000   -4.4924788    1.9459919   -2.5464869    1.0819392    1.2976524    5816.6111    476.04113 
 5399000   -4.4987967    1.9318506   -2.5669461    1.0601899    1.2882224    5816.6111    475.83257 
 5400000   -4.5002732    1.9090598   -2.5912133    1.0334432    1.2730248    5816.6111    476.74227 
 5401000   -4.5093442    1.9509346   -2.5584097   0.98357409    1.3009483    5816.6111     478.2469 
 5402000   -4.4749076    1.9408373   -2.5340703     1.105117    1.2942151    5816.6111    480.16401 
 5403000   -4.4666582    1.9269973   -2.5396609     1.150578    1.2849861    5816.6111     480.9578 
 5404000   -4.4897335    1.9454865   -2.5442469    1.0719496    1.2973153    5816.6111    481.48758 
 5405000   -4.5074592    1.9368799   -2.5705793   0.97612896    1.2915762    5816.6111    483.56605 
 5406000   -4.4714275    1.9180281   -2.5533994    1.1126892    1.2790051    5816.6111    484.46268 
 5407000   -4.4970007    1.9277067    -2.569294   0.96106213    1.2854592    5816.6111    486.34641 
 5408000   -4.5066872    1.9444892    -2.562198   0.97145548    1.2966503    5816.6111    488.56039 
 5409000   -4.5174933    1.9535712   -2.5639221    0.9923372    1.3027065    5816.6111    490.35641 
 5410000   -4.4638576    1.9289331   -2.5349244    1.1599551     1.286277    5816.6111    492.47867 
 5411000   -4.4678794    1.9499268   -2.5179526     1.161533    1.3002763    5816.6111     495.0802 
 5412000   -4.4557162    1.9543636   -2.5013527    1.1181855    1.3032348    5816.6111    495.66629 
 5413000   -4.4454929    1.9622518   -2.4832412     1.189568     1.308495    5816.6111     498.2719 
 5414000   -4.4466605    1.9440701   -2.5025903     1.221815    1.2963708    5816.6111    499.84597 
 5415000   -4.4792562    1.9469527   -2.5323035    1.0670697     1.298293    5816.6111    502.61185 
 5416000   -4.4935717    1.9773757    -2.516196    1.0055971    1.3185801    5816.6111    502.64022 
 5417000   -4.4776301    1.9607092   -2.5169209    1.1279161    1.3074663    5816.6111     503.4326 
 5418000   -4.4877024    1.9749481   -2.5127543    1.0510149    1.3169613    5816.6111    505.08378 
 5419000   -4.4769037    1.9491186   -2.5277851    1.0733464    1.2997374    5816.6111    506.03767 
 5420000   -4.4865599    1.9297493   -2.5568105    1.1016754    1.2868213    5816.6111    506.78631 
 5421000    -4.515238    1.9718187   -2.5434192   0.96588112    1.3148745    5816.6111    508.09975 
 5422000    -4.507832    1.9266907   -2.5811413   0.92363005    1.2847817    5816.6111    509.36314 
 5423000    -4.482126    1.9306889   -2.5514371     1.036969    1.2874478    5816.6111    511.16427 
 5424000   -4.4804019    1.9158496   -2.5645523    1.0569776    1.2775524    5816.6111    511.76849 
 5425000   -4.5215583    1.9181462   -2.6034121    0.9411434    1.2790839    5816.6111     513.6577 
 5426000   -4.5084768    1.9102993   -2.5981775   0.97754179    1.2738514    5816.6111    515.89158 
 5427000   -4.4824381    1.9334394   -2.5489987    1.0227693    1.2892819    5816.6111      516.189 
 5428000   -4.4928337    1.9445319   -2.5483018   0.99654401    1.2966788    5816.6111    517.21843 
 5429000   -4.4981127    1.9361685   -2.5619442   0.95041639    1.2911018    5816.6111    519.43503 
 5430000   -4.4842537    1.9158892   -2.5683645    1.0317814    1.2775789    5816.6111    520.49027 
 5431000   -4.4619469    1.8988412   -2.5631057    1.0850466    1.2662107    5816.6111    523.07674 
 5432000   -4.5211198    1.9165752   -2.6045446   0.91035318    1.2780363    5816.6111    524.94258 
 5433000   -4.4969252    1.9257711   -2.5711541    1.0259395    1.2841684    5816.6111    524.64043 
 5434000   -4.4840886    1.9364306   -2.5476581    1.0005971    1.2912765    5816.6111    525.47699 
 5435000   -4.4937956    1.9608819   -2.5329137    1.0219888    1.3075815    5816.6111    528.55018 
 5436000   -4.5031799    2.0164757   -2.4867041    1.0481932    1.3446533    5816.6111     530.2714 
 5437000   -4.4723775    1.9805518   -2.4918258    1.1367738     1.320698    5816.6111    533.50383 
 5438000   -4.4801418    1.9715004   -2.5086414    1.1263817    1.3146622    5816.6111    534.25756 
 5439000   -4.4693642    1.9402094   -2.5291548    1.1125664    1.2937964    5816.6111    534.21782 
 5440000   -4.4502301    1.9392588   -2.5109712    1.2294383    1.2931625    5816.6111    534.72108 
 5441000   -4.5011239    1.9672628   -2.5338611   0.98640184    1.3118365    5816.6111    535.87173 
 5442000   -4.4573346    1.9477675   -2.5095671    1.1360583    1.2988364    5816.6111    537.82796 
 5443000   -4.4960475    1.9651833   -2.5308643    1.0014808    1.3104498    5816.6111    541.55576 
 5444000   -4.4956407    1.9598683   -2.5357724   0.97854986    1.3069056    5816.6111    542.66791 
 5445000   -4.4881018    1.9498133   -2.5382885    1.0457636    1.3002006    5816.6111    544.43439 
 5446000   -4.4790529    1.9496805   -2.5293724    1.0258563     1.300112    5816.6111     546.6839 
 5447000   -4.4962438    1.9046557   -2.5915881    1.0168263     1.270088    5816.6111    549.79089 
 5448000   -4.4833474    1.9169757   -2.5663717    1.0747209    1.2783034    5816.6111    551.04692 
 5449000   -4.5070251    1.9497417   -2.5572834   0.92692786    1.3001528    5816.6111    553.15087 
 5450000   -4.5084189    1.9611775   -2.5472413    1.0042242    1.3077786    5816.6111    554.32931 
 5451000   -4.5023749    1.9325778   -2.5697971   0.98831778    1.2887074    5816.6111    555.07915 
 5452000    -4.495998    1.9387016   -2.5572964    1.0379404    1.2927909    5816.6111     556.4256 
 5453000    -4.491389    1.9307451    -2.560644    1.0054687    1.2874852    5816.6111    557.91621 
 5454000   -4.4755237     1.969648   -2.5058756    1.0764358     1.313427    5816.6111     560.5542 
 5455000   -4.4870448    1.9797926   -2.5072522    1.0908831    1.3201917    5816.6111    561.04254 
 5456000   -4.4900493    1.9554549   -2.5345944    1.0050223    1.3039626    5816.6111    562.24822 
 5457000   -4.4967217    1.9766827   -2.5200389    1.0882062     1.318118    5816.6111    563.77123 
 5458000   -4.5169857    1.9868068   -2.5301789   0.97145913    1.3248691    5816.6111    567.20248 
 5459000   -4.4752492    1.9491405   -2.5261087    1.0974742     1.299752    5816.6111    567.98386 
 5460000   -4.5006614    1.9780061   -2.5226553    1.0026106    1.3190005    5816.6111    568.08172 
 5461000   -4.4903025    1.9664464   -2.5238562    1.0144513    1.3112921    5816.6111    569.81465 
 5462000   -4.4919778    1.9175365   -2.5744413    1.0159997    1.2786774    5816.6111    571.92035 
 5463000    -4.498712    1.9128989    -2.585813    1.0413015    1.2755848    5816.6111    573.07163 
 5464000   -4.4982241    1.9378607   -2.5603634    1.0496754    1.2922302    5816.6111    573.62364 
 5465000   -4.4869616    1.9212314   -2.5657302     1.019522    1.2811412    5816.6111     574.0727 
 5466000   -4.5127124    1.9625898   -2.5501226   0.94691438    1.3087204    5816.6111    574.65449 
 5467000    -4.460053    1.9631746   -2.4968784    1.1513097    1.3091104    5816.6111    577.40033 
 5468000   -4.4585827    1.9360048   -2.5225779    1.2313225    1.2909926    5816.6111    578.82457 
 5469000   -4.4823302    1.9499219   -2.5324083    1.0916783     1.300273    5816.6111    578.52529 
 5470000   -4.4906979     1.977918   -2.5127799    1.0654906    1.3189417    5816.6111    579.91458 
 5471000   -4.4608998    1.9623231   -2.4985767    1.1500321    1.3085426    5816.6111    581.75684 
 5472000   -4.4769192     2.003483   -2.4734362    1.0815756    1.3359893    5816.6111    583.81255 
 5473000   -4.4573955     1.989255   -2.4681405    1.1549105    1.3265016    5816.6111    585.48415 
 5474000   -4.5060289    1.9822557   -2.5237732   0.96691047    1.3218343    5816.6111    587.00892 
 5475000   -4.4691263    1.9434259   -2.5257003    1.1218476    1.2959413    5816.6111    589.80453 
 5476000   -4.4956587    1.9659067   -2.5297519    1.0079463    1.3109322    5816.6111    591.53609 
 5477000   -4.4809934    1.9330151   -2.5479782    1.0743993     1.288999    5816.6111    592.38664 
 5478000   -4.4747547    1.8954027    -2.579352    1.1028661    1.2639178    5816.6111    593.00272 
 5479000   -4.4885583     1.928275   -2.5602833    1.0117196    1.2858382    5816.6111    593.81258 
 5480000   -4.5196485    1.9805655    -2.539083   0.94020038    1.3207072    5816.6111    594.08937 
 5481000   -4.4781338    1.9544514   -2.5236824    1.0841105    1.3032934    5816.6111    594.64573 
 5482000   -4.4570295    1.9767224   -2.4803072    1.2034788    1.3181445    5816.6111    596.73283 
 5483000   -4.4717534    1.9822071   -2.4895463    1.1314308    1.3218019    5816.6111    598.91758 
 5484000    -4.478553    1.9758861   -2.5026669    1.1317359    1.3175868    5816.6111    600.19805 
 5485000   -4.4865462    2.0075014   -2.4790448    1.0813949    1.3386689    5816.6111    600.71899 
 5486000   -4.4464743     1.957927   -2.4885473    1.2000813    1.3056111    5816.6111    602.01457 
 5487000    -4.479962    1.9693076   -2.5106545    1.0811361       1.3132    5816.6111    602.89853 
 5488000   -4.4798003    1.9638491   -2.5159513    1.1107419    1.3095601    5816.6111    604.32445 
 5489000   -4.4773705    1.9614072   -2.5159632     1.137171    1.3079318    5816.6111    605.86223 
 5490000   -4.4950651    1.9494052     -2.54566    1.0248687    1.2999284    5816.6111    607.58065 
 5491000   -4.4978017    1.9604423   -2.5373595    1.0094993    1.3072883    5816.6111    609.37302 
 5492000    -4.483968     1.932386    -2.551582    1.0325835    1.2885795    5816.6111    611.11837 
 5493000   -4.4917605    1.9255122   -2.5662484    1.0066281    1.2839958    5816.6111    612.45737 
 5494000    -4.502814    1.9441175   -2.5586965   0.98797606    1.2964024    5816.6111    615.01685 
 5495000   -4.4818632    1.8930472    -2.588816    1.0626503     1.262347    5816.6111    614.67214 
 5496000   -4.4906622    1.8843453   -2.6063169    1.0681893    1.2565444    5816.6111    615.36098 
 5497000   -4.4782493    1.9054206   -2.5728287     1.030733     1.270598    5816.6111    615.61217 
 5498000   -4.4941966    1.9505248   -2.5436718     1.063318     1.300675    5816.6111    615.23793 
 5499000   -4.4840281    1.9273639   -2.5566642    1.0468807    1.2852306    5816.6111    616.02267 
 5500000   -4.4848372    1.9096185   -2.5752188    1.0508212    1.2733973    5816.6111    616.48713 
Loop time of 1943.1 on 2 procs for 400000 steps with 4000 atoms

Performance: 88930.007 tau/day, 205.856 timesteps/s
99.1% CPU use with 2 MPI tasks x no OpenMP threads

MPI task timing breakdown:
Section |  min time  |  avg time  |  max time  |%varavg| %total
---------------------------------------------------------------
Pair    | 1608.3     | 1638.8     | 1669.2     |  75.2 | 84.34
Neigh   | 188.71     | 190.85     | 192.99     |  15.5 |  9.82
Comm    | 47.838     | 80.443     | 113.05     | 363.5 |  4.14
Output  | 1.2034     | 1.2057     | 1.2081     |   0.2 |  0.06
Modify  | 25.535     | 25.605     | 25.674     |   1.4 |  1.32
Other   |            | 6.239      |            |       |  0.32

Nlocal:    2000 ave 2002 max 1998 min
Histogram: 1 0 0 0 0 0 0 0 0 1
Nghost:    5433 ave 5443 max 5423 min
Histogram: 1 0 0 0 0 0 0 0 0 1
Neighs:    156910 ave 159853 max 153968 min
Histogram: 1 0 0 0 0 0 0 0 0 1

Total # of neighbors = 313821
Ave neighs/atom = 78.4553
Neighbor list builds = 20000
Dangerous builds not checked
unfix     intnvt
unfix     rdfnvt
uncompute rdfnvt
uncompute msd
undump    idnvt

next      a
jump      in.melt temploop #it will again transfer the call to label temploop line
Total wall time: 7:14:27
