LAMMPS (3 Mar 2020)
# 3d Lennard-Jones melt

units		lj #reduced unit
atom_style	atomic

lattice		fcc 0.8442
Lattice spacing in x,y,z = 1.6796 1.6796 1.6796
region		box block 0 10 0 10 0 10  #defining the region of the block taken
create_box	1 box
Created orthogonal box = (0 0 0) to (16.796 16.796 16.796)
  1 by 1 by 2 MPI processor grid

create_atoms	1 box
Created 4000 atoms
  create_atoms CPU = 0.000670437 secs

mass		1 1.0

velocity	all create 3.0 87287

pair_style	lj/cut 3.5
pair_coeff	1 1 1.0 1.0 3.5  # epsilon sigma and rcut is defined repectively

minimize  1.0e-4 1.0e-6 100 1000
WARNING: Using 'neigh_modify every 1 delay 0 check yes' setting during minimization (../min.cpp:190)
Neighbor list info ...
  update every 1 steps, delay 0 steps, check yes
  max neighbors/atom: 2000, page size: 100000
  master list distance cutoff = 3.8
  ghost atom cutoff = 3.8
  binsize = 1.9, bins = 9 9 9
  1 neighbor lists, perpetual/occasional/extra = 1 0 0
  (1) pair lj/cut, perpetual
      attributes: half, newton on
      pair build: half/bin/atomonly/newton
      stencil: half/bin/3d/newton
      bin: standard
Per MPI rank memory allocation (min/avg/max) = 5.296 | 5.296 | 5.296 Mbytes
Step Temp E_pair E_mol TotEng Press 
       0            3   -7.0441381            0   -2.5452631   -4.1596017 
       1            3   -7.0441381            0   -2.5452631   -4.1596017 
Loop time of 0.0126675 on 2 procs for 1 steps with 4000 atoms

77.5% CPU use with 2 MPI tasks x no OpenMP threads

Minimization stats:
  Stopping criterion = energy tolerance
  Energy initial, next-to-last, final = 
        -7.04413807288     -7.04413807288     -7.04413807288
  Force two-norm initial, final = 3.87217e-12 2.55733e-12
  Force max component initial, final = 9.61106e-14 5.19194e-14
  Final line search alpha, max atom move = 1 5.19194e-14
  Iterations, force evaluations = 1 2

MPI task timing breakdown:
Section |  min time  |  avg time  |  max time  |%varavg| %total
---------------------------------------------------------------
Pair    | 0.011868   | 0.011901   | 0.011934   |   0.0 | 93.95
Neigh   | 0          | 0          | 0          |   0.0 |  0.00
Comm    | 0.00043559 | 0.00046883 | 0.00050207 |   0.0 |  3.70
Output  | 0          | 0          | 0          |   0.0 |  0.00
Modify  | 0          | 0          | 0          |   0.0 |  0.00
Other   |            | 0.000298   |            |       |  2.35

Nlocal:    2000 ave 2000 max 2000 min
Histogram: 2 0 0 0 0 0 0 0 0 0
Nghost:    5990 ave 5990 max 5990 min
Histogram: 2 0 0 0 0 0 0 0 0 0
Neighs:    200000 ave 200000 max 200000 min
Histogram: 2 0 0 0 0 0 0 0 0 0

Total # of neighbors = 400000
Ave neighs/atom = 100
Neighbor list builds = 0
Dangerous builds = 0

neighbor	0.3 bin   #skin factor is taken to 0.3
neigh_modify	every 20 delay 0 check no
timestep 0.005
variable nthermo  equal 1000
variable tdamp    equal 1.0
variable pext     equal 1.0
variable pdamp    equal 10.0
variable Nevery   equal 1000
variable Nfreq    equal 100000
variable Nrepeat  equal 100
reset_timestep 0

#Using Npt to Calculate the rdf
label       temploop  #loop named as temploop
variable    a loop 11   #loop parameter defined
variable    temp equal 0.3+($a-1)*0.1   #temp value will increase at rate of 0.1 from 0.3 till 1.3
variable    temp equal 0.3+(1-1)*0.1   

thermo		${nthermo}
thermo		1000
thermo_style custom step pe ke etotal press temp vol density
dump		id all atom 1000 out.dump.npt.lammpstrj
restart 100000 restartnvt1.data restartnvt2.data

fix 		intnpt all npt temp ${temp} ${temp} ${tdamp} iso ${pext} ${pext} ${pdamp}
fix 		intnpt all npt temp 0.3 ${temp} ${tdamp} iso ${pext} ${pext} ${pdamp}
fix 		intnpt all npt temp 0.3 0.3 ${tdamp} iso ${pext} ${pext} ${pdamp}
fix 		intnpt all npt temp 0.3 0.3 1 iso ${pext} ${pext} ${pdamp}
fix 		intnpt all npt temp 0.3 0.3 1 iso 1 ${pext} ${pdamp}
fix 		intnpt all npt temp 0.3 0.3 1 iso 1 1 ${pdamp}
fix 		intnpt all npt temp 0.3 0.3 1 iso 1 1 10
run		  100000
Per MPI rank memory allocation (min/avg/max) = 4.747 | 4.747 | 4.747 Mbytes
Step PotEng KinEng TotEng Press Temp Volume Density 
       0   -7.0441381     4.498875   -2.5452631   -4.1596017            3    4738.2137       0.8442 
    1000   -6.6109053   0.70418394   -5.9067214    0.3689632   0.46957336    4355.8488   0.91830552 
    2000   -7.1766019   0.44030747   -6.7362944   0.93646358   0.29361172    4055.2529   0.98637498 
    3000   -7.1743344   0.46841479   -6.7059196   0.96414348   0.31235461    4055.6907   0.98626851 
    4000   -7.2104249   0.45987157   -6.7505533    1.0042722   0.30665771    4038.3291   0.99050867 
    5000   -7.2299578   0.43287931   -6.7970785    1.0449282   0.28865837    4027.1134   0.99326728 
    6000   -7.2309234   0.44209822   -6.7888252    1.0047876   0.29480585    4029.5337   0.99267069 
    7000   -7.2281003   0.45949839   -6.7686019   0.98228191   0.30640886    4032.8045   0.99186559 
    8000   -7.2431576   0.45498532   -6.7881722   0.99608351    0.3033994    4025.6984   0.99361642 
    9000   -7.2662753   0.44899353   -6.8172818   0.97105551   0.29940387    4018.7871   0.99532519 
   10000   -7.2526545   0.44611612   -6.8065384   0.99782362   0.29748512    4021.4824   0.99465808 
   11000   -7.2425191   0.45397118   -6.7885479   0.99025459   0.30272313    4025.9597   0.99355192 
   12000   -7.2573669   0.44977393    -6.807593   0.95622786   0.29992427    4022.5059   0.99440501 
   13000   -7.2634666   0.44244379   -6.8210228    1.0100831   0.29503629     4017.705   0.99559327 
   14000   -7.2570694   0.44822439    -6.808845    0.9707124   0.29889098    4022.0703   0.99451269 
   15000   -7.2569791   0.45480742   -6.8021716   0.97342983   0.30328077    4022.6721   0.99436392 
   16000   -7.2630056    0.4473325   -6.8156731    1.0089871   0.29829624    4017.9196   0.99554007 
   17000   -7.2708605   0.44342119   -6.8274393    1.0064358   0.29568805    4014.3364    0.9964287 
   18000   -7.2759375   0.44623645   -6.8297011    1.0182004   0.29756536    4011.5202   0.99712821 
   19000   -7.2767201   0.45923678   -6.8174833    1.0081305   0.30623441    4011.9272   0.99702706 
   20000   -7.2773173   0.45572551   -6.8215918    1.1234747   0.30389298    4004.9643   0.99876047 
   21000   -7.2757973   0.44602227    -6.829775    1.2309493   0.29742253    3997.3543    1.0006619 
   22000   -7.2751753   0.45178023   -6.8233951     1.192885   0.30126213     4000.403   0.99989926 
   23000   -7.2772996   0.45425298   -6.8230466    1.1029795   0.30291105    4005.5034   0.99862604 
   24000   -7.2893498   0.45394358   -6.8354062    1.0256542   0.30270473    4006.7768   0.99830867 
   25000    -7.292973   0.45329549   -6.8396775   0.95299272   0.30227256    4009.5917    0.9976078 
   26000    -7.276146   0.44692565   -6.8292203   0.99181604   0.29802494    4013.4381   0.99665172 
   27000   -7.2759872   0.44856732   -6.8274198     1.004901   0.29911966    4012.7203      0.99683 
   28000    -7.282606   0.43997106   -6.8426349    1.0408998   0.29338738    4007.4536   0.99814006 
   29000   -7.2807539   0.43934063   -6.8414132    1.0744983     0.292967    4006.0751   0.99848352 
   30000   -7.2712253   0.43890798   -6.8323173    1.0664469   0.29267849    4008.4747   0.99788582 
   31000   -7.2817064   0.45002737    -6.831679     1.032035   0.30009327    4008.5294    0.9978722 
   32000   -7.2798479   0.44208482   -6.8377631    1.0308503   0.29479692    4009.0543   0.99774154 
   33000   -7.2857169   0.45249066   -6.8332262   0.96864608   0.30173588    4011.3487   0.99717086 
   34000   -7.2854149   0.44470707   -6.8407079    0.9310824   0.29654552     4014.183   0.99646677 
   35000   -7.2854534   0.44559933   -6.8398541   0.85696528    0.2971405    4018.5913   0.99537367 
   36000    -7.287674   0.45358535   -6.8340886   0.79267233   0.30246585    4022.0475   0.99451835 
   37000    -7.282638   0.44503868   -6.8375993   0.87489799   0.29676664    4018.4707   0.99540355 
   38000    -7.296019   0.44988155   -6.8461374   0.92180948   0.29999603    4011.0187   0.99725289 
   39000   -7.2942128   0.45030714   -6.8439057    0.9865039   0.30027983    4007.5574   0.99811421 
   40000   -7.2914227   0.45210189   -6.8393208    1.0090327   0.30147663    4006.6982   0.99832825 
   41000   -7.2980001   0.45786904   -6.8401311   0.99615494   0.30532236    4005.5159   0.99862292 
   42000   -7.2960957   0.44700413   -6.8490916    1.0442873   0.29807727    4002.1476    0.9994634 
   43000    -7.293121   0.44943198   -6.8436891    1.0321411   0.29969624     4003.855   0.99903719 
   44000   -7.2940704   0.45698135    -6.837089    1.0033164   0.30473042    4005.1647   0.99871049 
   45000   -7.2940905   0.44903988   -6.8450506    1.0610805   0.29943478    4001.8949   0.99952649 
   46000   -7.3079774   0.45575805   -6.8522193    1.0189722   0.30391468    3999.3174    1.0001707 
   47000   -7.2953795   0.45732655   -6.8380529     1.057447   0.30496061    4001.8919   0.99952724 
   48000     -7.29117   0.45933717   -6.8318328    1.0419201   0.30630136    4004.8614   0.99878614 
   49000   -7.2955521   0.44070383   -6.8548482    1.0697299   0.29387602    4000.8251   0.99979377 
   50000   -7.2991142    0.4408558   -6.8582584    0.9890484   0.29397736    4004.5958   0.99885236 
   51000   -7.2991859   0.44425156   -6.8549343   0.92152747   0.29624177    4008.2633   0.99793843 
   52000   -7.2992832   0.45578974   -6.8434934    0.8412058   0.30393581    4014.0438   0.99650133 
   53000   -7.2914094   0.44342705   -6.8479824   0.95782322   0.29569195    4009.2022   0.99770473 
   54000   -7.3092269   0.44545072   -6.8637762    0.9480019   0.29704141    4003.6688   0.99908364 
   55000   -7.2915247     0.437903   -6.8536217    1.0119754   0.29200834    4005.0815   0.99873124 
   56000    -7.307715   0.44710525   -6.8606097   0.99228466    0.2981447    4001.2648   0.99968391 
   57000   -7.3152147   0.44818336   -6.8670313    1.0125138   0.29886362    3998.2396    1.0004403 
   58000   -7.3150192   0.44875474   -6.8662645     1.035514   0.29924464    3995.8063    1.0010495 
   59000   -7.3225941   0.45625189   -6.8663422    1.0196042   0.30424399    3994.7588     1.001312 
   60000   -7.3306101   0.45522163   -6.8753885    1.0076774   0.30355697    3992.7451     1.001817 
   61000   -7.3360451   0.45557425   -6.8804708    1.0226158   0.30379211    3989.7404    1.0025715 
   62000   -7.3288328   0.46002478    -6.868808     1.027702   0.30675988    3992.6165    1.0018493 
   63000    -7.344018   0.45652703    -6.887491   0.97141658   0.30442746    3990.4523    1.0023926 
   64000   -7.3474129   0.44163346   -6.9057794   0.95680079   0.29449593    3988.6314    1.0028502 
   65000   -7.3540669    0.4473758   -6.9066911   0.92764553   0.29832511    3989.3313    1.0026743 
   66000   -7.3420578   0.45046637   -6.8915914   0.95712716   0.30038601    3992.8459    1.0017917 
   67000    -7.352229   0.44962925   -6.9025997   0.95880804   0.29982779    3988.2386     1.002949 
   68000    -7.370592    0.4514581   -6.9191339      0.90757   0.30104733    3985.2688    1.0036964 
   69000   -7.3672738     0.447419   -6.9198548   0.94870965   0.29835392    3982.9346    1.0042846 
   70000   -7.3734515   0.44660329   -6.9268483   0.97780962   0.29780998    3978.7648    1.0053371 
   71000   -7.3785759   0.44539278   -6.9331831    1.0120676   0.29700277    3975.3426    1.0062026 
   72000   -7.3814915   0.44795124   -6.9335402   0.99169571   0.29870883    3976.3325    1.0059521 
   73000   -7.3799623   0.45425065   -6.9257117    1.0067895    0.3029095    3975.5069     1.006161 
   74000   -7.3934707   0.45526439   -6.9382063    1.0320267   0.30358549     3969.095    1.0077864 
   75000   -7.3953402   0.44762031   -6.9477199    1.0781734   0.29848816    3965.5773    1.0086804 
   76000   -7.3989401   0.45631034   -6.9426297    1.0974996   0.30428296    3962.7695    1.0093951 
   77000   -7.4074105   0.45911519   -6.9482953    1.1446267   0.30615333    3957.6006    1.0107134 
   78000   -7.4303415   0.45855795   -6.9717836    1.1202107   0.30578174      3950.67    1.0124865 
   79000   -7.4429258   0.46519206   -6.9777337    1.0935844   0.31020559    3948.0358     1.013162 
   80000   -7.4570371   0.45425443   -7.0027826    1.0376435   0.30291201    3946.4939    1.0135579 
   81000   -7.4680554   0.45755536      -7.0105   0.99689564   0.30511318    3945.2678    1.0138729 
   82000   -7.4918059   0.44699485   -7.0448111   0.99524643   0.29807108    3937.2689    1.0159326 
   83000   -7.4890067   0.45571212   -7.0332945    1.0529836   0.30388405    3934.9169    1.0165399 
   84000   -7.5027828   0.44632022   -7.0564626    1.0536143   0.29762122    3929.9295      1.01783 
   85000   -7.5226171    0.4480615   -7.0745556    1.0352418   0.29878236    3925.0787    1.0190879 
   86000   -7.5277134   0.45365544   -7.0740579     1.002715   0.30251259    3925.6788    1.0189321 
   87000   -7.5460258   0.45489793   -7.0911279   0.97411889   0.30334112      3921.49    1.0200205 
   88000   -7.5499143   0.44574336   -7.1041709   0.99832497   0.29723655    3916.3286    1.0213648 
   89000   -7.5506794    0.4536729   -7.0970065    1.0230605   0.30252423    3915.6606     1.021539 
   90000   -7.5716368   0.44430905   -7.1273277    1.0571463    0.2962801    3906.2896    1.0239896 
   91000   -7.5695107   0.44804348   -7.1214672    1.0454566   0.29877035    3907.9966    1.0235423 
   92000   -7.5656589   0.45549435   -7.1101646    1.0552881   0.30373883    3909.8239     1.023064 
   93000   -7.5632215   0.45441795   -7.1088035    1.0655658   0.30302106     3909.545     1.023137 
   94000   -7.5765024   0.45058047    -7.125922    1.0661335   0.30046209    3905.1527    1.0242877 
   95000   -7.5640817     0.451233   -7.1128487    1.0320941   0.30089722    3911.2146    1.0227002 
   96000   -7.5787981   0.45143033   -7.1273678   0.98128536   0.30102881    3909.0038    1.0232786 
   97000   -7.5757541    0.4562285   -7.1195256   0.98270881   0.30422839    3910.8497    1.0227956 
   98000   -7.5850611   0.45422578   -7.1308353   0.98012331   0.30289291    3907.1169    1.0237728 
   99000   -7.5771787   0.45154074    -7.125638   0.98685846   0.30110244    3909.0049    1.0232783 
  100000   -7.5687862    0.4475296   -7.1212566    1.0108008   0.29842767     3911.672    1.0225806 
Loop time of 403.565 on 2 procs for 100000 steps with 4000 atoms

Performance: 107046.069 tau/day, 247.792 timesteps/s
99.2% CPU use with 2 MPI tasks x no OpenMP threads

MPI task timing breakdown:
Section |  min time  |  avg time  |  max time  |%varavg| %total
---------------------------------------------------------------
Pair    | 344.21     | 346.33     | 348.44     |  11.3 | 85.82
Neigh   | 33.85      | 34.031     | 34.212     |   3.1 |  8.43
Comm    | 11.23      | 13.506     | 15.782     |  61.9 |  3.35
Output  | 0.18857    | 0.18912    | 0.18967    |   0.1 |  0.05
Modify  | 8.4971     | 8.5134     | 8.5296     |   0.6 |  2.11
Other   |            | 0.9993     |            |       |  0.25

Nlocal:    2000 ave 2008 max 1992 min
Histogram: 1 0 0 0 0 0 0 0 0 1
Nghost:    6643.5 ave 6651 max 6636 min
Histogram: 1 0 0 0 0 0 0 0 0 1
Neighs:    233634 ave 235237 max 232032 min
Histogram: 1 0 0 0 0 0 0 0 0 1

Total # of neighbors = 467269
Ave neighs/atom = 116.817
Neighbor list builds = 5000
Dangerous builds not checked
unfix   intnpt
undump  id

#Using Nvt to calculate the rdf and msd
compute   msd all msd average yes
compute   rdfnvt all rdf 100 1 1
fix       rdfnvt all ave/time ${Nevery} ${Nrepeat} ${Nfreq} c_rdfnvt[*] file systemnvt.rdf mode vector
fix       rdfnvt all ave/time 1000 ${Nrepeat} ${Nfreq} c_rdfnvt[*] file systemnvt.rdf mode vector
fix       rdfnvt all ave/time 1000 100 ${Nfreq} c_rdfnvt[*] file systemnvt.rdf mode vector
fix       rdfnvt all ave/time 1000 100 100000 c_rdfnvt[*] file systemnvt.rdf mode vector
thermo    ${nthermo}
thermo    1000
thermo_style custom step pe ke etotal press temp vol c_msd[4]
dump      idnvt all atom 1000 out.dump.nvt.lammpstrj
restart   100000 restartnpt1.data restartnp2.data

fix       intnvt all nvt temp ${temp} ${temp} ${tdamp}
fix       intnvt all nvt temp 0.3 ${temp} ${tdamp}
fix       intnvt all nvt temp 0.3 0.3 ${tdamp}
fix       intnvt all nvt temp 0.3 0.3 1
run       400000
Neighbor list info ...
  update every 20 steps, delay 0 steps, check no
  max neighbors/atom: 2000, page size: 100000
  master list distance cutoff = 3.8
  ghost atom cutoff = 3.8
  binsize = 1.9, bins = 9 9 9
  2 neighbor lists, perpetual/occasional/extra = 1 1 0
  (1) pair lj/cut, perpetual
      attributes: half, newton on
      pair build: half/bin/atomonly/newton
      stencil: half/bin/3d/newton
      bin: standard
  (2) compute rdf, occasional, copy from (1)
      attributes: half, newton on
      pair build: copy
      stencil: none
      bin: none
Per MPI rank memory allocation (min/avg/max) = 5.127 | 5.127 | 5.127 Mbytes
Step PotEng KinEng TotEng Press Temp Volume c_msd[4] 
  100000   -7.5687862    0.4475296   -7.1212566    1.0108008   0.29842767     3911.672            0 
  101000    -7.596938   0.46064758   -7.1362905   0.87329678   0.30717518     3911.672  0.011772899 
  102000   -7.6005725   0.44844685   -7.1521257   0.84611223   0.29903933     3911.672  0.019726013 
  103000   -7.5953041   0.44584353   -7.1494606   0.86370331   0.29730334     3911.672  0.020926744 
  104000   -7.6069067   0.45717102   -7.1497357   0.80759667   0.30485689     3911.672  0.020625152 
  105000   -7.6059495   0.45925712   -7.1466924    0.8186391   0.30624797     3911.672  0.024575258 
  106000   -7.6058574   0.44594115   -7.1599162   0.80606711   0.29736844     3911.672   0.03844327 
  107000     -7.62206   0.45578341   -7.1662765   0.72304898   0.30393159     3911.672  0.052282819 
  108000   -7.6310647   0.45543717   -7.1756275   0.67669538    0.3037007     3911.672   0.04670619 
  109000   -7.6349822   0.45427873   -7.1807034   0.65033162   0.30292822     3911.672  0.045240833 
  110000   -7.6431769   0.45478993    -7.188387   0.59015537    0.3032691     3911.672  0.050978178 
  111000   -7.6571372   0.45620461   -7.2009326   0.53478452   0.30421246     3911.672  0.058487729 
  112000   -7.6567708   0.44664163   -7.2101291   0.50953566   0.29783554     3911.672  0.049532237 
  113000   -7.6677045   0.46027088   -7.2074336   0.46708856   0.30692399     3911.672  0.051709572 
  114000   -7.6510413   0.45536951   -7.1956718   0.56599955   0.30365559     3911.672  0.047701957 
  115000   -7.6501339   0.45239688    -7.197737   0.54540206   0.30167334     3911.672  0.042210529 
  116000   -7.6658704   0.44683376   -7.2190366   0.46633347   0.29796366     3911.672  0.042176439 
  117000   -7.6639502   0.45349014   -7.2104601   0.48110949   0.30240236     3911.672  0.038806482 
  118000   -7.6567064   0.45148695   -7.2052195   0.51415234   0.30106657     3911.672  0.038342583 
  119000   -7.6647678   0.46007325   -7.2046946   0.47209203    0.3067922     3911.672  0.034042644 
  120000   -7.6647331   0.44729104    -7.217442   0.46588204    0.2982686     3911.672  0.033583243 
  121000   -7.6646464   0.44190186   -7.2227445   0.46347054   0.29467491     3911.672  0.032950992 
  122000   -7.6649969    0.4478878   -7.2171091   0.46433085   0.29866654     3911.672  0.028322024 
  123000   -7.6603684   0.45162265   -7.2087458    0.4976121   0.30115706     3911.672  0.027334844 
  124000   -7.6616172   0.46383662   -7.1977805    0.4902928   0.30930174     3911.672  0.025022282 
  125000   -7.6601907   0.44975456   -7.2104362   0.48627602   0.29991135     3911.672  0.023597445 
  126000   -7.6653861   0.44829803   -7.2170881    0.4684427   0.29894009     3911.672  0.024601452 
  127000   -7.6738923   0.45019585   -7.2236965   0.42994533   0.30020562     3911.672  0.023091912 
  128000    -7.666734   0.44498314   -7.2217509   0.46600827   0.29672961     3911.672  0.020990245 
  129000   -7.6635811    0.4482087   -7.2153724    0.4638586   0.29888052     3911.672  0.023002531 
  130000   -7.6642914   0.45044648   -7.2138449   0.47540988   0.30037275     3911.672  0.019974398 
  131000    -7.667973   0.45694045   -7.2110326    0.4698527   0.30470314     3911.672  0.020225579 
  132000   -7.6710727   0.45351346   -7.2175592   0.44606102   0.30241791     3911.672  0.020613534 
  133000    -7.673809   0.45008116   -7.2237278   0.42484426   0.30012914     3911.672  0.018172385 
  134000   -7.6746608   0.44113821   -7.2335226   0.41111237   0.29416568     3911.672  0.018062093 
  135000    -7.666306   0.45798481   -7.2083212   0.48000357   0.30539955     3911.672  0.017101015 
  136000   -7.6562693   0.44887795   -7.2073913   0.51285034    0.2993268     3911.672  0.016370076 
  137000   -7.6675717    0.4355513   -7.2320204     0.463174   0.29044014     3911.672  0.017464216 
  138000    -7.667749   0.44739265   -7.2203563    0.4500674   0.29833635     3911.672  0.015733373 
  139000   -7.6641024   0.45114329   -7.2129591   0.47326235    0.3008374     3911.672  0.015882641 
  140000   -7.6623957   0.45754817   -7.2048476   0.48810816   0.30510839     3911.672  0.016070282 
  141000   -7.6739132   0.45881608   -7.2150971   0.42561217   0.30595387     3911.672  0.015866509 
  142000   -7.6740645   0.45242062   -7.2216439   0.43172419   0.30168917     3911.672   0.01913975 
  143000   -7.6767596   0.44919086   -7.2275688   0.40192717   0.29953546     3911.672  0.018678211 
  144000   -7.6640703   0.45260699   -7.2114633   0.46790126   0.30181345     3911.672  0.018798278 
  145000   -7.6618213    0.4569283    -7.204893   0.49099933   0.30469504     3911.672  0.016968903 
  146000   -7.6546659   0.45767006   -7.1969958   0.54118679   0.30518967     3911.672  0.018120344 
  147000    -7.667096   0.45452808    -7.212568   0.45225668   0.30309449     3911.672  0.016496004 
  148000   -7.6637725   0.44737941   -7.2163931    0.4816385   0.29832752     3911.672  0.016867059 
  149000   -7.6614437   0.45632425   -7.2051194   0.49203041   0.30429224     3911.672   0.01709235 
  150000   -7.6654202   0.45474733   -7.2106728   0.45962835    0.3032407     3911.672  0.017624401 
  151000   -7.6622491   0.43775547   -7.2244936   0.47010581   0.29190996     3911.672  0.020007001 
  152000   -7.6676647   0.45349454   -7.2141702   0.44203598   0.30240529     3911.672  0.020082884 
  153000   -7.6700365   0.46008928   -7.2099472   0.44223657   0.30680289     3911.672  0.015939212 
  154000    -7.661714   0.44371049   -7.2180035    0.4760554   0.29588096     3911.672  0.018982299 
  155000   -7.6693107   0.43739926   -7.2319114   0.43452553   0.29167243     3911.672   0.02607843 
  156000   -7.6751252   0.44474425   -7.2303809   0.39760893   0.29657031     3911.672  0.039996484 
  157000   -7.6733919    0.4587096   -7.2146823   0.42128003   0.30588287     3911.672  0.046760444 
  158000   -7.6644382   0.45321134   -7.2112268   0.47115274   0.30221645     3911.672   0.04002111 
  159000    -7.660729   0.44739754   -7.2133315   0.49075228   0.29833961     3911.672  0.041080108 
  160000   -7.6790461   0.45184479   -7.2272013   0.39233236   0.30130519     3911.672   0.04948568 
  161000   -7.6833887   0.44556913   -7.2378195   0.36793714   0.29712036     3911.672  0.066198136 
  162000   -7.6973307   0.44232486   -7.2550058   0.28553608   0.29495698     3911.672   0.10332384 
  163000   -7.7023484   0.44517174   -7.2571767   0.25508935   0.29685537     3911.672   0.11492875 
  164000   -7.7110213   0.44072363   -7.2702977   0.19270864   0.29388923     3911.672   0.11649646 
  165000   -7.7226832     0.442014   -7.2806692   0.14502249   0.29474969     3911.672   0.13709289 
  166000   -7.7378794   0.45296719   -7.2849122  0.052899746   0.30205364     3911.672   0.14031463 
  167000   -7.7300131   0.44111719   -7.2888959  0.093197868   0.29415166     3911.672   0.14259784 
  168000   -7.7262636   0.45317687   -7.2730867   0.13125833   0.30219346     3911.672   0.13612859 
  169000   -7.7276649   0.45441671   -7.2732482   0.12684204   0.30302023     3911.672   0.13157749 
  170000   -7.7294771   0.45215509    -7.277322   0.10664656   0.30151211     3911.672   0.12899416 
  171000   -7.7317209   0.44172155   -7.2899993  0.087995428   0.29455468     3911.672   0.13165611 
  172000   -7.7284432   0.44481865   -7.2836245    0.1123415   0.29661992     3911.672   0.13001587 
  173000   -7.7304729   0.45325228   -7.2772207  0.095057655   0.30224375     3911.672    0.1299425 
  174000   -7.7233887   0.44577766   -7.2776111   0.12415597   0.29725942     3911.672   0.12974228 
  175000   -7.7265695   0.44141345    -7.285156   0.10068328   0.29434922     3911.672   0.12532727 
  176000   -7.7344691   0.45526829   -7.2792008  0.073232405   0.30358809     3911.672   0.11984818 
  177000   -7.7340671   0.46395342   -7.2701137   0.08594658   0.30937962     3911.672   0.12044754 
  178000   -7.7308093   0.44582079   -7.2849886  0.080324306   0.29728818     3911.672   0.11730407 
  179000   -7.7381096   0.44911723   -7.2889923  0.047603166   0.29948636     3911.672   0.11316632 
  180000   -7.7162338     0.443064   -7.2731698   0.16580345   0.29544987     3911.672   0.11192099 
  181000   -7.7197957   0.45285854   -7.2669372   0.13907345   0.30198119     3911.672   0.10972821 
  182000   -7.7307213   0.45664014   -7.2740811   0.09779416   0.30450288     3911.672   0.10507819 
  183000   -7.7312412   0.45297418   -7.2782671  0.090309204    0.3020583     3911.672   0.10282306 
  184000   -7.7358324   0.44956801   -7.2862644  0.060070678   0.29978695     3911.672   0.10403746 
  185000   -7.7330212   0.45490236   -7.2781189  0.075562707   0.30334408     3911.672  0.099640359 
  186000   -7.7247714    0.4479229   -7.2768485   0.12458179   0.29868994     3911.672  0.095699958 
  187000   -7.7284586   0.45150424   -7.2769544   0.11066191   0.30107809     3911.672   0.09573282 
  188000   -7.7333504   0.44684515   -7.2865052  0.062782624   0.29797126     3911.672  0.094796573 
  189000   -7.7340041   0.44925157   -7.2847525  0.078569953   0.29957594     3911.672  0.092254438 
  190000   -7.7328062   0.44760331   -7.2852029  0.077597124   0.29847683     3911.672  0.089829103 
  191000   -7.7347351   0.43980417   -7.2949309  0.056350611    0.2932761     3911.672   0.09206877 
  192000   -7.7330682   0.44434464   -7.2887236  0.069578936   0.29630384     3911.672  0.091989414 
  193000   -7.7342116   0.44792808   -7.2862835  0.075757735    0.2986934     3911.672  0.093299883 
  194000   -7.7290518   0.45824678   -7.2708051  0.083435002   0.30557425     3911.672  0.092852878 
  195000   -7.7321534   0.44645916   -7.2856942  0.065029016   0.29771387     3911.672  0.092015923 
  196000   -7.7411564      0.44898   -7.2921764  0.019460852   0.29939485     3911.672  0.094096187 
  197000   -7.7413452   0.44227623   -7.2990689  0.011466412   0.29492455     3911.672  0.087705477 
  198000   -7.7421409    0.4507401   -7.2914008  0.013960529   0.30056855     3911.672  0.085440187 
  199000   -7.7466174   0.45501102   -7.2916064 -0.00091736608   0.30341653     3911.672  0.089406323 
  200000   -7.7475251    0.4504422   -7.2970829 -0.029526252   0.30036989     3911.672  0.086240173 
  201000    -7.749461   0.44990775   -7.2995533 -0.020118937    0.3000135     3911.672  0.085554204 
  202000   -7.7433574   0.44260124   -7.3007561 0.0075748989   0.29514128     3911.672  0.083332205 
  203000   -7.7489754   0.44666294   -7.3023125 -0.022825119   0.29784975     3911.672  0.079672752 
  204000   -7.7483743   0.44415528    -7.304219 -0.021888178   0.29617756     3911.672  0.077918644 
  205000   -7.7359349    0.4435188   -7.2924161  0.052857904   0.29575314     3911.672  0.082030042 
  206000   -7.7416381   0.44810831   -7.2935298  0.012560059   0.29881358     3911.672  0.076122967 
  207000   -7.7457914   0.44389093   -7.3019004 0.00087579073   0.29600129     3911.672  0.077220622 
  208000   -7.7477851   0.44371252   -7.3040726 -0.016831554   0.29588232     3911.672  0.075944971 
  209000    -7.739809   0.44523003    -7.294579  0.017695088   0.29689424     3911.672  0.071906081 
  210000   -7.7432859   0.44924845   -7.2940375   0.02254011   0.29957386     3911.672  0.074128109 
  211000   -7.7407051   0.43689759   -7.3038075  0.018915958   0.29133789     3911.672   0.06976783 
  212000   -7.7492847   0.44795332   -7.3013314 -0.027747304   0.29871022     3911.672  0.072716096 
  213000    -7.746865   0.45414238   -7.2927226 -0.0059889028    0.3028373     3911.672  0.066079941 
  214000   -7.7367564   0.45018411   -7.2865723  0.050961923   0.30019779     3911.672  0.069338954 
  215000   -7.7413772   0.45991097   -7.2814662  0.029045661   0.30668398     3911.672  0.067041531 
  216000   -7.7421272   0.45001721     -7.29211  0.024965486   0.30008649     3911.672  0.066878658 
  217000   -7.7466255   0.44616308   -7.3004624 -0.0030880124   0.29751643     3911.672  0.065163589 
  218000   -7.7445968   0.43993784    -7.304659 -0.014432264   0.29336524     3911.672  0.065285694 
  219000   -7.7505193   0.44371667   -7.3068027  -0.03538514   0.29588508     3911.672  0.062120506 
  220000   -7.7415869   0.44814413   -7.2934428  0.017211941   0.29883746     3911.672  0.061941322 
  221000   -7.7444775   0.45307429   -7.2914032 -0.0018443122   0.30212506     3911.672   0.06018144 
  222000   -7.7364253   0.44298294   -7.2934424  0.037027951   0.29539581     3911.672  0.059805479 
  223000   -7.7517772   0.44051039   -7.3112668 -0.052149114   0.29374703     3911.672  0.059272368 
  224000   -7.7392885    0.4490883   -7.2902002  0.035294047   0.29946707     3911.672  0.056976161 
  225000   -7.7476815   0.45922457   -7.2884569 -0.0089072619   0.30622627     3911.672  0.057230983 
  226000   -7.7444561   0.46034433   -7.2841117  0.010353124   0.30697297     3911.672  0.057436736 
  227000   -7.7444138   0.44821708   -7.2961968   0.00997491   0.29888611     3911.672  0.055467524 
  228000   -7.7467965   0.45692566   -7.2898709 -0.0022727981   0.30469328     3911.672  0.055577041 
  229000   -7.7385659   0.45943022   -7.2791357   0.04195491   0.30636341     3911.672  0.056125111 
  230000   -7.7454123    0.4509946   -7.2944177 -0.0018307396   0.30073825     3911.672  0.053294856 
  231000   -7.7491677   0.45355992   -7.2956078   -0.0263779   0.30244889     3911.672  0.054477891 
  232000   -7.7450117   0.45110419   -7.2939075 0.0066959609   0.30081133     3911.672  0.051740498 
  233000   -7.7390264   0.45663739    -7.282389  0.025669335   0.30450105     3911.672  0.053087171 
  234000   -7.7334642   0.44968128   -7.2837829  0.072569122   0.29986249     3911.672  0.052561361 
  235000   -7.7343976   0.44758019   -7.2868174  0.051371563   0.29846141     3911.672  0.051773156 
  236000   -7.7449874   0.45146699   -7.2935204 -0.0059298917   0.30105326     3911.672  0.049582104 
  237000   -7.7372501   0.45037102   -7.2868791  0.052683956   0.30032243     3911.672  0.050706795 
  238000   -7.7482045   0.45493652    -7.293268 -0.015425249   0.30336685     3911.672  0.049879587 
  239000   -7.7438297   0.44458016   -7.2992496 0.00099608073   0.29646089     3911.672  0.047397377 
  240000   -7.7427941   0.45288096   -7.2899131  0.016943582   0.30199614     3911.672  0.046663519 
  241000   -7.7356994   0.44170043    -7.293999  0.042992202   0.29454059     3911.672  0.046325409 
  242000    -7.756537   0.45198496   -7.3045521 -0.066786109   0.30139866     3911.672  0.047556014 
  243000   -7.7453768   0.44776248   -7.2976143 -0.0010134801   0.29858297     3911.672  0.046158948 
  244000   -7.7344443   0.44834733   -7.2860969  0.046165825   0.29897296     3911.672  0.046525015 
  245000   -7.7375372   0.44536986   -7.2921673  0.033503901   0.29698749     3911.672  0.045515778 
  246000   -7.7434343   0.44832361   -7.2951107  0.011396588   0.29895714     3911.672  0.044702547 
  247000   -7.7586319   0.43843509   -7.3201968 -0.079813599   0.29236315     3911.672  0.045804387 
  248000   -7.7452618   0.45875908   -7.2865027 0.0013246006   0.30591587     3911.672  0.043299588 
  249000   -7.7464002   0.45367819    -7.292722 0.00065912766   0.30252776     3911.672  0.044937945 
  250000   -7.7431062   0.44651177   -7.2965944  0.017742283   0.29774895     3911.672  0.042481376 
  251000   -7.7522266   0.44011673   -7.3121099 -0.052226964   0.29348453     3911.672  0.043227059 
  252000   -7.7503431   0.44690159   -7.3034415 -0.025914154   0.29800889     3911.672  0.042426624 
  253000   -7.7430941   0.44307348   -7.3000206  0.009391371   0.29545618     3911.672  0.041131828 
  254000   -7.7383135    0.4506903   -7.2876232  0.035752255   0.30053534     3911.672  0.042052825 
  255000   -7.7319399   0.44570375   -7.2862361  0.070897031   0.29721014     3911.672  0.040942169 
  256000   -7.7484367   0.45354465    -7.294892  -0.01507663   0.30243871     3911.672  0.040155585 
  257000   -7.7484025   0.45532007   -7.2930825 -0.016121197   0.30362262     3911.672  0.038965884 
  258000   -7.7335431   0.44620868   -7.2873344  0.053648453   0.29754684     3911.672  0.041196859 
  259000   -7.7379657   0.45473347   -7.2832323  0.034638178   0.30323145     3911.672  0.044222595 
  260000   -7.7399875   0.46232065   -7.2776669  0.035333702   0.30829084     3911.672  0.042158156 
  261000   -7.7348989   0.44977467   -7.2851243  0.062750066   0.29992476     3911.672  0.037610165 
  262000   -7.7465674   0.44939483   -7.2971726 -0.010468331   0.29967147     3911.672  0.035717777 
  263000   -7.7442118   0.45635234   -7.2878594  0.014299775   0.30431097     3911.672  0.037185939 
  264000   -7.7403281   0.45142922   -7.2888989  0.025181838   0.30102807     3911.672  0.038400738 
  265000   -7.7449534   0.44920489   -7.2957485 -0.0040445924   0.29954481     3911.672  0.036286938 
  266000   -7.7583939   0.45479501   -7.3035989 -0.068417213   0.30327249     3911.672  0.035470798 
  267000   -7.7403313   0.44043595   -7.2998954  0.014645915   0.29369739     3911.672  0.036067345 
  268000   -7.7444301   0.44606156   -7.2983686 -0.0039514542   0.29744874     3911.672  0.034371425 
  269000   -7.7333565   0.44685729   -7.2864992   0.05870722   0.29797936     3911.672  0.034831967 
  270000   -7.7474079   0.46040453   -7.2870034 -0.0070020732   0.30701311     3911.672  0.035125073 
  271000   -7.7418804   0.44810848   -7.2937719  0.014676733   0.29881369     3911.672  0.034438799 
  272000   -7.7449051    0.4459629   -7.2989422 -0.0042771281   0.29738295     3911.672  0.033769039 
  273000   -7.7406756     0.447337   -7.2933386  0.023684864   0.29829924     3911.672  0.034185049 
  274000   -7.7421915   0.44935749    -7.292834  0.014442555   0.29964657     3911.672  0.034079921 
  275000   -7.7534056   0.45174394   -7.3016617 -0.041393512   0.30123794     3911.672  0.033887978 
  276000   -7.7426107   0.44803559   -7.2945752 0.0037916239   0.29876509     3911.672  0.032342509 
  277000    -7.733916   0.44681806   -7.2870979   0.05366247    0.2979532     3911.672  0.034756171 
  278000   -7.7304152   0.45574242   -7.2746728  0.088818882   0.30390426     3911.672  0.031881193 
  279000   -7.7389437    0.4459868   -7.2929569  0.034219055   0.29739888     3911.672   0.03355176 
  280000   -7.7432546    0.4465353   -7.2967193 0.0049585074   0.29776464     3911.672  0.034315926 
  281000   -7.7451628   0.44668698   -7.2984758 0.0044893671   0.29786578     3911.672  0.033874651 
  282000    -7.750386   0.45255714   -7.2978289 -0.036162148   0.30178021     3911.672  0.031329119 
  283000   -7.7436038   0.45063959   -7.2929642 0.0024142259   0.30050152     3911.672  0.031354536 
  284000   -7.7424125   0.45101745   -7.2913951  0.013808428   0.30075349     3911.672  0.033599845 
  285000    -7.743592   0.45127331   -7.2923187 0.0090044569    0.3009241     3911.672  0.031485474 
  286000   -7.7480758   0.44133246   -7.3067433 -0.030240053   0.29429521     3911.672  0.029726672 
  287000   -7.7474914   0.44475882   -7.3027326 -0.021567956   0.29658003     3911.672  0.031284589 
  288000    -7.745333   0.44366634   -7.3016666 -0.0089588088   0.29585153     3911.672  0.031678847 
  289000   -7.7470407   0.46053621   -7.2865045 -0.021816323   0.30710091     3911.672  0.030508664 
  290000   -7.7441751   0.45685072   -7.2873243 0.0045852716   0.30464331     3911.672  0.030373757 
  291000   -7.7409997   0.45931489   -7.2816848   0.02203902    0.3062865     3911.672  0.027475927 
  292000   -7.7434724   0.45533483   -7.2881376   0.01674283   0.30363246     3911.672  0.029276347 
  293000   -7.7519347   0.45238499   -7.2995498 -0.044065221   0.30166541     3911.672  0.029928826 
  294000    -7.740026    0.4482569   -7.2917691  0.034355795   0.29891266     3911.672  0.030175663 
  295000   -7.7383507   0.45669196   -7.2816588   0.03649064   0.30453744     3911.672  0.031347689 
  296000   -7.7448243   0.45891124   -7.2859131 0.0025706578   0.30601733     3911.672  0.033350318 
  297000    -7.746656   0.45013934   -7.2965167 -0.013035578   0.30016793     3911.672  0.031036446 
  298000   -7.7491007   0.46027861   -7.2888221 -0.017006109   0.30692914     3911.672  0.035723231 
  299000   -7.7458116   0.46105043   -7.2847612  0.010866277   0.30744381     3911.672  0.032935391 
  300000   -7.7361361   0.44879014   -7.2873459  0.045045873   0.29926825     3911.672  0.029911677 
  301000    -7.749491   0.44886933   -7.3006217 -0.037149844   0.29932105     3911.672  0.028621508 
  302000   -7.7496362   0.45283069   -7.2968055 -0.020672485   0.30196262     3911.672  0.028010111 
  303000   -7.7358587   0.44919081   -7.2866679  0.053887086   0.29953542     3911.672  0.029638293 
  304000   -7.7352992   0.45453906   -7.2807601  0.066459824   0.30310182     3911.672  0.028163842 
  305000   -7.7382315   0.44841294   -7.2898185  0.038186423   0.29901671     3911.672  0.028862339 
  306000   -7.7474049   0.44888374   -7.2985211 -0.0068326175   0.29933066     3911.672  0.030388711 
  307000   -7.7395668   0.43850974   -7.3010571   0.03515686   0.29241293     3911.672  0.028600943 
  308000   -7.7459653   0.44353575   -7.3024296 -0.0085697634   0.29576444     3911.672  0.028990339 
  309000   -7.7469057   0.45464726   -7.2922584 -0.0032644031   0.30317397     3911.672  0.027993682 
  310000    -7.742832   0.45189282   -7.2909392 0.0044425373   0.30133722     3911.672  0.027798842 
  311000   -7.7491811   0.45383442   -7.2953467 -0.025754684   0.30263194     3911.672  0.029178024 
  312000   -7.7567325   0.44352108   -7.3132114 -0.069530115   0.29575466     3911.672  0.028645896 
  313000   -7.7423055    0.4459206   -7.2963849  0.024093068   0.29735474     3911.672   0.02691584 
  314000   -7.7436322    0.4546497   -7.2889824 0.0055685497    0.3031756     3911.672  0.027920128 
  315000   -7.7324579   0.44642468   -7.2860332  0.068675229   0.29769088     3911.672  0.028286316 
  316000   -7.7383674   0.45874399   -7.2796234  0.044868191   0.30590581     3911.672  0.029615803 
  317000   -7.7355479   0.45308888    -7.282459  0.059515028   0.30213479     3911.672   0.02849105 
  318000    -7.746283   0.45339455   -7.2928885 -0.010504347   0.30233862     3911.672  0.027835607 
  319000   -7.7490597   0.45333729   -7.2957224 -0.025176746   0.30230044     3911.672  0.030631671 
  320000   -7.7505696   0.45238063   -7.2981889 -0.029111549    0.3016625     3911.672  0.034776013 
  321000   -7.7449413   0.44549793   -7.2994434 -0.0034965366   0.29707289     3911.672  0.028684167 
  322000   -7.7417351   0.44793996   -7.2937951  0.018464023   0.29870132     3911.672  0.028596886 
  323000    -7.741508   0.45007816   -7.2914298  0.017029212   0.30012714     3911.672  0.026872898 
  324000    -7.742809   0.45259003    -7.290219  0.010679928   0.30180214     3911.672   0.02797954 
  325000   -7.7388588   0.44172118   -7.2971376  0.028745037   0.29455443     3911.672  0.027270558 
  326000   -7.7483967   0.44721857   -7.3011782 -0.029785242   0.29822027     3911.672  0.026479436 
  327000   -7.7528179     0.454864   -7.2979539 -0.046828471   0.30331849     3911.672  0.026183542 
  328000    -7.742759   0.44783661   -7.2949224 0.0033243596    0.2986324     3911.672  0.026551955 
  329000   -7.7412449   0.46592549   -7.2753194  0.035516137   0.31069466     3911.672  0.028103899 
  330000   -7.7345188   0.44282471   -7.2916941  0.046993445   0.29529029     3911.672  0.026585644 
  331000   -7.7409527   0.44318269     -7.29777  0.021325147   0.29552901     3911.672  0.027018026 
  332000   -7.7485079   0.44701315   -7.3014948 -0.024317949   0.29808329     3911.672  0.027231451 
  333000   -7.7449739   0.45287159   -7.2921023 -0.0041969012   0.30198989     3911.672  0.024335246 
  334000   -7.7439221   0.45217764   -7.2917445 0.0077490884   0.30152714     3911.672   0.02388813 
  335000   -7.7443751   0.44845494   -7.2959201 -0.0014906867   0.29904472     3911.672  0.025851791 
  336000   -7.7408537   0.44155853   -7.2992952  0.018059999   0.29444596     3911.672  0.023021937 
  337000   -7.7473025   0.44833433   -7.2989681 -0.0031389779    0.2989643     3911.672  0.024333157 
  338000   -7.7491232   0.45439179   -7.2947314 -0.018513261   0.30300361     3911.672   0.02478566 
  339000   -7.7390774   0.45581467   -7.2832627   0.03591508   0.30395243     3911.672  0.025004677 
  340000   -7.7387686   0.45384311   -7.2849255  0.028093271   0.30263773     3911.672  0.025253944 
  341000    -7.742807   0.44445637   -7.2983506 0.0031550424   0.29637834     3911.672  0.024484821 
  342000   -7.7418959   0.44556435   -7.2963316 0.0086406893   0.29711718     3911.672  0.023900153 
  343000   -7.7407663   0.45629533    -7.284471  0.024318093   0.30427295     3911.672   0.02410466 
  344000   -7.7383847   0.44934306   -7.2890417  0.041544939   0.29963695     3911.672  0.024990784 
  345000   -7.7505336   0.44562921   -7.3049044 -0.039414633   0.29716043     3911.672  0.023665567 
  346000      -7.7557   0.44917299    -7.306527 -0.064950337   0.29952354     3911.672  0.023425026 
  347000   -7.7440624   0.44862561   -7.2954368 -0.0046436201   0.29915853     3911.672  0.023497866 
  348000   -7.7417507   0.45003846   -7.2917122 0.0096767544   0.30010066     3911.672  0.024133112 
  349000   -7.7413035   0.44571131   -7.2955922  0.006345642   0.29721518     3911.672  0.024535189 
  350000   -7.7554642   0.45242739   -7.3030368  -0.05913625   0.30169368     3911.672  0.023722654 
  351000   -7.7495782   0.43822127    -7.311357 -0.035397201   0.29222057     3911.672  0.023902008 
  352000   -7.7455549   0.44287275   -7.3026822 -0.017626186   0.29532233     3911.672  0.025482455 
  353000   -7.7454125   0.45129016   -7.2941224 -0.007970353   0.30093534     3911.672   0.02595254 
  354000   -7.7454583   0.45999207   -7.2854663 0.00044971838   0.30673806     3911.672  0.025667122 
  355000   -7.7472504   0.45204912   -7.2952013 -0.017826582   0.30144144     3911.672  0.024541424 
  356000   -7.7578024   0.45250944    -7.305293 -0.069659665    0.3017484     3911.672  0.024428896 
  357000   -7.7438531   0.44848669   -7.2953664  0.003633411   0.29906589     3911.672   0.02478676 
  358000   -7.7420029   0.45609254   -7.2859104  0.016089147   0.30413773     3911.672   0.02420128 
  359000   -7.7405438   0.44754664   -7.2929972  0.012817108   0.29843904     3911.672  0.023355582 
  360000   -7.7511636   0.44285731   -7.3083063 -0.040114515   0.29531203     3911.672  0.023622765 
  361000   -7.7628405   0.45222037   -7.3106201  -0.10604603   0.30155564     3911.672  0.024601496 
  362000    -7.748619   0.44544318   -7.3031758 -0.020872863   0.29703638     3911.672  0.025620821 
  363000   -7.7352629   0.44060938   -7.2946535  0.041212866   0.29381304     3911.672  0.024917143 
  364000   -7.7391795   0.45035015   -7.2888293  0.022112869   0.30030851     3911.672  0.025653478 
  365000   -7.7399897   0.45393364   -7.2860561   0.01954687    0.3026981     3911.672  0.025174429 
  366000   -7.7363639    0.4445835   -7.2917804   0.03273467   0.29646312     3911.672  0.022930127 
  367000   -7.7494832   0.45157684   -7.2979064 -0.030602681   0.30112651     3911.672  0.025856514 
  368000   -7.7503475   0.45420707   -7.2961404 -0.043696231   0.30288043     3911.672  0.028490915 
  369000     -7.73891   0.45403438   -7.2848756  0.020373988   0.30276528     3911.672  0.028460175 
  370000    -7.739565   0.45214133   -7.2874237  0.016600262   0.30150293     3911.672  0.030268869 
  371000   -7.7498772   0.44881677   -7.3010604 -0.048922093     0.299286     3911.672  0.029342258 
  372000   -7.7549712   0.45016943   -7.3048018 -0.080132992     0.300188     3911.672  0.029770109 
  373000   -7.7552415   0.44978775   -7.3054538 -0.079309887   0.29993349     3911.672  0.028811923 
  374000   -7.7477816   0.45342594   -7.2943556 -0.025729368   0.30235955     3911.672  0.028955029 
  375000   -7.7419894   0.45726503   -7.2847244  0.011046503   0.30491958     3911.672  0.030424581 
  376000   -7.7493398   0.45760346   -7.2917364 -0.030591349   0.30514526     3911.672  0.029417516 
  377000   -7.7508057   0.45022726   -7.3005785 -0.042548744   0.30022656     3911.672  0.029434544 
  378000   -7.7425776   0.44725832   -7.2953193 -0.013275894   0.29824678     3911.672  0.028851668 
  379000   -7.7420057   0.44853295   -7.2934728 -0.0030082791   0.29909674     3911.672  0.028739123 
  380000   -7.7319049   0.43832481   -7.2935801  0.046775638   0.29228961     3911.672  0.030090101 
  381000   -7.7446143   0.44755104   -7.2970632 -0.016544326   0.29844197     3911.672  0.028143856 
  382000   -7.7535379   0.44833024   -7.3052076 -0.067683285   0.29896157     3911.672  0.030486767 
  383000   -7.7459573   0.44289525    -7.303062 -0.028959346   0.29533734     3911.672  0.037280217 
  384000   -7.7491763   0.44324219   -7.3059341  -0.05409619   0.29556868     3911.672  0.037816879 
  385000   -7.7584852   0.44910228   -7.3093829 -0.084223996   0.29947639     3911.672  0.047482323 
  386000   -7.7602882   0.45339048   -7.3068977  -0.10779649   0.30233591     3911.672  0.057929464 
  387000    -7.752723    0.4618199   -7.2909031 -0.030217956   0.30795692     3911.672  0.063344328 
  388000   -7.7722698   0.44625278    -7.326017  -0.14811437   0.29757625     3911.672   0.06496211 
  389000   -7.7726691   0.44999337   -7.3226757  -0.15826517    0.3000706     3911.672  0.062248731 
  390000   -7.7758227   0.45359013   -7.3222325  -0.17777458   0.30246904     3911.672  0.061743804 
  391000   -7.7654235   0.44914558    -7.316278  -0.11702688   0.29950526     3911.672  0.062306104 
  392000    -7.766097   0.44829263   -7.3178044  -0.12442693   0.29893649     3911.672  0.060729855 
  393000   -7.7728032   0.44792075   -7.3248825  -0.16990613   0.29868851     3911.672  0.059956124 
  394000   -7.7836334   0.46066388   -7.3229695  -0.20604199   0.30718605     3911.672   0.06188319 
  395000   -7.7682207   0.45331787   -7.3149028  -0.12571201   0.30228749     3911.672  0.067541463 
  396000   -7.7665611   0.44506376   -7.3214973  -0.11188215   0.29678337     3911.672  0.065672293 
  397000   -7.7798041   0.45068655   -7.3291176  -0.20110368   0.30053284     3911.672  0.066337907 
  398000   -7.7753678   0.44112533   -7.3342424   -0.1867837   0.29415709     3911.672  0.066676931 
  399000   -7.7753814   0.45214521   -7.3232362  -0.16931288   0.30150551     3911.672  0.065963956 
  400000   -7.7819285   0.45662731   -7.3253012  -0.19160944   0.30449433     3911.672  0.063164888 
  401000   -7.7717775   0.44534504   -7.3264325  -0.14980907   0.29697094     3911.672  0.062878964 
  402000    -7.788729    0.4544535   -7.3342755  -0.23958547   0.30304476     3911.672  0.065553286 
  403000   -7.7813204   0.45057936   -7.3307411  -0.20269828   0.30046136     3911.672  0.065725833 
  404000   -7.7788561   0.45283776   -7.3260183  -0.17804931   0.30196733     3911.672  0.065313384 
  405000   -7.7751861   0.45439993   -7.3207862  -0.16610561   0.30300904     3911.672  0.065743673 
  406000   -7.7745247    0.4649003   -7.3096244  -0.14784607   0.31001104     3911.672  0.064752264 
  407000   -7.7847672   0.44817671   -7.3365905  -0.21500672   0.29885919     3911.672  0.063317345 
  408000   -7.7837889   0.44941904   -7.3343699  -0.19993394   0.29968762     3911.672  0.067689795 
  409000   -7.7755885   0.44841472   -7.3271738  -0.16728679    0.2990179     3911.672  0.063736101 
  410000   -7.7753549   0.45838425   -7.3169707  -0.17010624   0.30566591     3911.672  0.064886393 
  411000    -7.778549   0.45718542   -7.3213636  -0.18128717   0.30486649     3911.672  0.062712184 
  412000    -7.775213   0.45089862   -7.3243144  -0.16849216   0.30067425     3911.672  0.062732118 
  413000    -7.779589   0.44535692   -7.3342321  -0.17993336   0.29697886     3911.672  0.065712299 
  414000   -7.7852679    0.4411955   -7.3440724  -0.22143785   0.29420388     3911.672  0.063789513 
  415000   -7.7914908   0.44965197   -7.3418388   -0.2720257   0.29984294     3911.672  0.062751213 
  416000   -7.7777801   0.44700772   -7.3307723  -0.18931149   0.29807967     3911.672  0.065333406 
  417000   -7.7832508   0.45963516   -7.3236156  -0.21402354   0.30650006     3911.672  0.064612008 
  418000   -7.7768627    0.4586623   -7.3182004  -0.17363573   0.30585133     3911.672  0.064540946 
  419000   -7.7758535    0.4530684   -7.3227851  -0.16013055   0.30212113     3911.672  0.061621088 
  420000    -7.788318   0.45286087   -7.3354572  -0.22343839   0.30198274     3911.672  0.060101269 
  421000   -7.7868923   0.44616203   -7.3407303   -0.2477332   0.29751573     3911.672  0.060738721 
  422000   -7.7869794   0.45477732   -7.3322021  -0.24018762   0.30326069     3911.672  0.063434385 
  423000   -7.7793217   0.45366741   -7.3256543  -0.17959883   0.30252057     3911.672  0.062876624 
  424000   -7.7877586   0.45738783   -7.3303708  -0.24060634   0.30500147     3911.672  0.061906786 
  425000   -7.7834823   0.44541377   -7.3380686  -0.20854832   0.29701677     3911.672  0.061058015 
  426000    -7.782272   0.44632178   -7.3359502  -0.21124468   0.29762226     3911.672  0.060430882 
  427000   -7.7879823   0.45772355   -7.3302588  -0.23635931   0.30522534     3911.672  0.063292635 
  428000   -7.7805797   0.46048736   -7.3200923  -0.18923545   0.30706834     3911.672  0.063491883 
  429000   -7.7725237   0.45053369     -7.32199  -0.16590861    0.3004309     3911.672  0.062184829 
  430000    -7.787623   0.45324395   -7.3343791  -0.23743627   0.30223819     3911.672  0.061025304 
  431000   -7.7947733   0.45556916   -7.3392042  -0.28487618   0.30378872     3911.672  0.064490026 
  432000   -7.7935242   0.45020332   -7.3433209  -0.28080583    0.3002106     3911.672   0.06308208 
  433000   -7.7883426   0.43611232   -7.3522302  -0.25590111   0.29081425     3911.672  0.067591132 
  434000   -7.7898834   0.45081606   -7.3390673  -0.25777704   0.30061919     3911.672  0.066653931 
  435000   -7.7916215   0.45897856   -7.3326429  -0.26691772   0.30606222     3911.672  0.065404278 
  436000   -7.7884788   0.45781517   -7.3306636  -0.24910085   0.30528644     3911.672  0.062482498 
  437000   -7.7773577    0.4412575   -7.3361002  -0.20571689   0.29424523     3911.672  0.058061163 
  438000   -7.7800357   0.43667072   -7.3433649  -0.21350036   0.29118661     3911.672  0.060196179 
  439000   -7.7908099   0.45141448   -7.3393954  -0.26261366   0.30101824     3911.672   0.06323807 
  440000     -7.78189   0.44399657   -7.3378934  -0.21704292   0.29607173     3911.672  0.065921225 
  441000   -7.7850811   0.44944142   -7.3356397  -0.24030525   0.29970254     3911.672  0.063309742 
  442000   -7.7754778   0.44844368   -7.3270342  -0.18580342   0.29903721     3911.672  0.061779724 
  443000   -7.7766113   0.45895191   -7.3176594  -0.18635256   0.30604445     3911.672  0.059087062 
  444000   -7.7827911   0.45786873   -7.3249224  -0.21062375   0.30532215     3911.672  0.058238675 
  445000    -7.783431   0.45498785   -7.3284432  -0.21962225   0.30340109     3911.672   0.06382745 
  446000   -7.7802844   0.44209215   -7.3381923  -0.21192416    0.2948018     3911.672  0.067137951 
  447000   -7.7986856   0.45136063   -7.3473249  -0.31264449   0.30098233     3911.672  0.066944557 
  448000   -7.7890483   0.44556408   -7.3434842  -0.25785018     0.297117     3911.672  0.059987935 
  449000   -7.7850333   0.45003786   -7.3349955  -0.23888172   0.30010026     3911.672  0.065714105 
  450000   -7.7847794   0.45659924   -7.3281802  -0.23608312   0.30447561     3911.672  0.066740582 
  451000   -7.7734874   0.44900269   -7.3244847  -0.17037777   0.29940998     3911.672  0.066122013 
  452000   -7.7796663   0.46010809   -7.3195582  -0.19684352   0.30681543     3911.672  0.063221654 
  453000   -7.7820852   0.44741855   -7.3346666  -0.22101052   0.29835362     3911.672    0.0590527 
  454000   -7.7802717   0.44376517   -7.3365065  -0.21739625   0.29591742     3911.672  0.055827845 
  455000   -7.7856334   0.44645597   -7.3391774  -0.24681634   0.29771174     3911.672   0.05802254 
  456000   -7.7770871   0.44887074   -7.3282164   -0.1881401   0.29932199     3911.672  0.056953958 
  457000   -7.7869499   0.46303338   -7.3239165  -0.22820506   0.30876611     3911.672  0.057300674 
  458000   -7.7752378   0.44785333   -7.3273845  -0.18373428   0.29864355     3911.672  0.058207515 
  459000   -7.7802895   0.44519386   -7.3350956  -0.21954423   0.29687013     3911.672  0.057005962 
  460000   -7.7931692   0.44891919   -7.3442501  -0.27170688    0.2993543     3911.672  0.063477637 
  461000    -7.789102   0.44928317   -7.3398188  -0.25594501   0.29959701     3911.672   0.05715307 
  462000   -7.7794184   0.44721203   -7.3322063  -0.19468065   0.29821591     3911.672  0.060789614 
  463000   -7.7819384   0.45234147    -7.329597  -0.21487397   0.30163639     3911.672  0.053192202 
  464000   -7.7756518   0.45287018   -7.3227816   -0.1890655   0.30198895     3911.672  0.052711194 
  465000   -7.7890632   0.45334097   -7.3357222   -0.2495148   0.30230289     3911.672  0.062421093 
  466000   -7.7929434   0.45375764   -7.3391858  -0.28229074   0.30258074     3911.672  0.057815387 
  467000   -7.7858847    0.4424951   -7.3433896  -0.25126371    0.2950705     3911.672  0.053269243 
  468000    -7.782409    0.4484162   -7.3339928    -0.217335   0.29901889     3911.672  0.051293846 
  469000   -7.7784544   0.46150958   -7.3169448  -0.19614204   0.30774999     3911.672  0.049027808 
  470000    -7.783139   0.45701676   -7.3261222  -0.22043558   0.30475403     3911.672  0.051326566 
  471000   -7.7826252   0.44996646   -7.3326587  -0.21158308   0.30005265     3911.672  0.053106453 
  472000   -7.7928628   0.45059472   -7.3422681  -0.28579038    0.3004716     3911.672   0.04700284 
  473000   -7.7889963   0.44941664   -7.3395796   -0.2576975   0.29968602     3911.672  0.050318277 
  474000    -7.788455     0.451708    -7.336747  -0.25434716   0.30121397     3911.672  0.049219336 
  475000   -7.7786307   0.44654104   -7.3320897  -0.20744383   0.29776847     3911.672  0.047824234 
  476000   -7.7892933    0.4534185   -7.3358748  -0.25384822   0.30235459     3911.672  0.048208807 
  477000   -7.7915032   0.44627471   -7.3452285  -0.28014453   0.29759087     3911.672  0.049330179 
  478000    -7.786459   0.44999051   -7.3364685  -0.24924917   0.30006869     3911.672  0.047181783 
  479000    -7.780672   0.45515824   -7.3255138  -0.19731154   0.30351471     3911.672  0.048742991 
  480000   -7.7854987   0.45368531   -7.3318134  -0.23245878   0.30253251     3911.672  0.048433994 
  481000   -7.7823349   0.44776027   -7.3345746  -0.21633108   0.29858149     3911.672  0.047535484 
  482000   -7.7916915   0.43425309   -7.3574384  -0.28285707   0.28957445     3911.672  0.047491868 
  483000    -7.778151   0.45053778   -7.3276132  -0.19751153   0.30043363     3911.672  0.048404962 
  484000   -7.7809208   0.45030318   -7.3306176   -0.2040094   0.30027719     3911.672  0.050784364 
  485000   -7.7856557   0.43754052   -7.3481152  -0.24615285   0.29176662     3911.672  0.050876554 
  486000   -7.7969926   0.44670197   -7.3502907  -0.30364423   0.29787578     3911.672  0.047483102 
  487000    -7.790938   0.44775389   -7.3431841  -0.27433504   0.29857724     3911.672  0.048026989 
  488000   -7.7879074    0.4489055   -7.3390019  -0.25387084   0.29934517     3911.672  0.051090115 
  489000   -7.7774945   0.45874934   -7.3187452  -0.18692987   0.30590937     3911.672  0.050519137 
  490000   -7.7840393   0.45240924   -7.3316301  -0.21832466   0.30168158     3911.672  0.048992769 
  491000   -7.7873477   0.45106157   -7.3362861  -0.24656144   0.30078291     3911.672  0.050393313 
  492000   -7.7945276    0.4504675   -7.3440601  -0.27370587   0.30038676     3911.672  0.048857971 
  493000   -7.7844814   0.45025791   -7.3342235  -0.21126991     0.300247     3911.672  0.048181088 
  494000   -7.7886156   0.45894773   -7.3296679  -0.22748684   0.30604166     3911.672  0.046727856 
  495000   -7.7858117   0.44254328   -7.3432685  -0.22565565   0.29510263     3911.672   0.04653204 
  496000   -7.7951172   0.45064962   -7.3444676  -0.26435445    0.3005082     3911.672  0.050485458 
  497000   -7.7768993      0.44208   -7.3348193  -0.18996959    0.2947937     3911.672  0.047782066 
  498000   -7.7831822   0.45605199   -7.3271302  -0.20801183   0.30411069     3911.672   0.04760446 
  499000   -7.7832001   0.44705661   -7.3361435  -0.22485738   0.29811227     3911.672  0.047278437 
  500000   -7.7984687   0.44452683   -7.3539418  -0.28965184   0.29642532     3911.672  0.048797497 
Loop time of 1615.51 on 2 procs for 400000 steps with 4000 atoms

Performance: 106963.335 tau/day, 247.600 timesteps/s
99.3% CPU use with 2 MPI tasks x no OpenMP threads

MPI task timing breakdown:
Section |  min time  |  avg time  |  max time  |%varavg| %total
---------------------------------------------------------------
Pair    | 1406.3     | 1407.9     | 1409.4     |   4.1 | 87.15
Neigh   | 139.78     | 139.89     | 140.01     |   1.0 |  8.66
Comm    | 43.627     | 45.091     | 46.556     |  21.8 |  2.79
Output  | 0.75459    | 0.75643    | 0.75827    |   0.2 |  0.05
Modify  | 17.368     | 17.397     | 17.427     |   0.7 |  1.08
Other   |            | 4.509      |            |       |  0.28

Nlocal:    2000 ave 2002 max 1998 min
Histogram: 1 0 0 0 0 0 0 0 0 1
Nghost:    6620.5 ave 6621 max 6620 min
Histogram: 1 0 0 0 0 0 0 0 0 1
Neighs:    232865 ave 233290 max 232440 min
Histogram: 1 0 0 0 0 0 0 0 0 1

Total # of neighbors = 465730
Ave neighs/atom = 116.433
Neighbor list builds = 20000
Dangerous builds not checked
unfix     intnvt
unfix     rdfnvt
uncompute rdfnvt
uncompute msd
undump    idnvt

next      a
jump      in.melt temploop #it will again transfer the call to label temploop line
variable    a loop 11   #loop parameter defined
variable    temp equal 0.3+($a-1)*0.1   #temp value will increase at rate of 0.1 from 0.3 till 1.3
variable    temp equal 0.3+(2-1)*0.1   

thermo		${nthermo}
thermo		1000
thermo_style custom step pe ke etotal press temp vol density
dump		id all atom 1000 out.dump.npt.lammpstrj
restart 100000 restartnvt1.data restartnvt2.data

fix 		intnpt all npt temp ${temp} ${temp} ${tdamp} iso ${pext} ${pext} ${pdamp}
fix 		intnpt all npt temp 0.4 ${temp} ${tdamp} iso ${pext} ${pext} ${pdamp}
fix 		intnpt all npt temp 0.4 0.4 ${tdamp} iso ${pext} ${pext} ${pdamp}
fix 		intnpt all npt temp 0.4 0.4 1 iso ${pext} ${pext} ${pdamp}
fix 		intnpt all npt temp 0.4 0.4 1 iso 1 ${pext} ${pdamp}
fix 		intnpt all npt temp 0.4 0.4 1 iso 1 1 ${pdamp}
fix 		intnpt all npt temp 0.4 0.4 1 iso 1 1 10
run		  100000
Neighbor list info ...
  update every 20 steps, delay 0 steps, check no
  max neighbors/atom: 2000, page size: 100000
  master list distance cutoff = 3.8
  ghost atom cutoff = 3.8
  binsize = 1.9, bins = 9 9 9
  1 neighbor lists, perpetual/occasional/extra = 1 0 0
  (1) pair lj/cut, perpetual
      attributes: half, newton on
      pair build: half/bin/atomonly/newton
      stencil: half/bin/3d/newton
      bin: standard
Per MPI rank memory allocation (min/avg/max) = 4.752 | 4.752 | 4.752 Mbytes
Step PotEng KinEng TotEng Press Temp Volume Density 
  500000   -7.7984687   0.44452683   -7.3539418  -0.28965184   0.29642532     3911.672    1.0225806 
  501000   -7.6808169   0.59311023   -7.0877067    1.0898384    0.3955057    3872.1432    1.0330197 
  502000   -7.6856498   0.59873871   -7.0869111    1.0644269   0.39925895    3872.5874    1.0329012 
  503000   -7.6593111   0.60089501   -7.0584161   0.95375814   0.40069685     3887.615    1.0289085 
  504000   -7.6673512   0.60782146   -7.0595297   0.94833768   0.40531564    3885.7474     1.029403 
  505000   -7.6858312   0.60582539   -7.0800058   0.99123745   0.40398459    3876.9833      1.03173 
  506000    -7.677924   0.59760409   -7.0803199    1.0049171   0.39850235    3878.2538     1.031392 
  507000    -7.668016   0.59677804   -7.0712379   0.98268028   0.39795151    3882.6849     1.030215 
  508000   -7.6711171   0.60385574   -7.0672614   0.99115408   0.40267116     3881.575    1.0305095 
  509000   -7.6769442   0.59438615    -7.082558      1.06387   0.39635652    3874.7423    1.0323267 
  510000   -7.6724899   0.59590804   -7.0765819    1.0064364   0.39737137      3879.67    1.0310155 
  511000   -7.6677587   0.60222355   -7.0655351    1.0415796   0.40158276    3879.1813    1.0311454 
  512000    -7.655753   0.61350359   -7.0422494   0.89451181   0.40910467    3892.8265     1.027531 
  513000   -7.6669634   0.59732442    -7.069639    1.1380442   0.39831586     3874.041    1.0325136 
  514000   -7.6832389   0.60493287   -7.0783061    1.0058484   0.40338943    3876.2753    1.0319185 
  515000   -7.6671682   0.59291137   -7.0742568    0.8380709   0.39537309    3891.5634    1.0278645 
  516000   -7.6758778   0.61290048   -7.0629773   0.96409618    0.4087025    3881.9324    1.0304146 
  517000   -7.6772785    0.6047677   -7.0725108    1.1352313   0.40327929     3870.386    1.0334886 
  518000    -7.652269   0.59609344   -7.0561756   0.94726724     0.397495    3890.2319    1.0282163 
  519000   -7.6615769   0.60918291    -7.052394   0.91888398   0.40622349    3889.5547    1.0283953 
  520000   -7.6743569   0.59704798   -7.0773089    1.0362214   0.39813152    3877.5676    1.0315745 
  521000   -7.6785195    0.5974637   -7.0810558    1.0075087   0.39840874     3877.319    1.0316407 
  522000   -7.6591718   0.59325817   -7.0659136   0.99776822   0.39560435    3884.2912    1.0297889 
  523000   -7.6649267   0.60281192   -7.0621148    1.0080423   0.40197511    3882.7135    1.0302074 
  524000    -7.675064   0.59841972   -7.0766443    1.0057027   0.39904624    3878.9943    1.0311951 
  525000    -7.678911   0.59694369   -7.0819673    1.0610804   0.39806198    3874.3921      1.03242 
  526000   -7.6700519   0.58427877   -7.0857732    1.0528828   0.38961658    3877.1218    1.0316931 
  527000   -7.6586802    0.5883135   -7.0703667   0.93957642   0.39230708    3887.8081    1.0288574 
  528000   -7.6652405   0.59420237   -7.0710382     1.049668   0.39623397    3878.9242    1.0312138 
  529000   -7.6768317   0.59564947   -7.0811822    1.1525649   0.39719895    3869.0114    1.0338558 
  530000   -7.6687858   0.59547258   -7.0733132    0.8840671   0.39708099    3888.0804    1.0287853 
  531000   -7.6685494   0.59071655   -7.0778329    1.0289415   0.39390951    3880.2666     1.030857 
  532000   -7.6770998   0.60446326   -7.0726365     1.144154   0.40307628    3870.4326    1.0334762 
  533000   -7.6801805   0.61103861   -7.0691419   0.92709273   0.40746094    3882.5584    1.0302485 
  534000   -7.6613563     0.599574   -7.0617823   0.88207126   0.39981595    3890.6605    1.0281031 
  535000   -7.6727612   0.59668107   -7.0760801    1.0148687   0.39788685    3879.1858    1.0311442 
  536000   -7.6796093   0.59938773   -7.0802216    1.0363359   0.39969174      3875.73    1.0320636 
  537000   -7.6621957   0.59303271    -7.069163    1.0110098     0.395454      3882.75    1.0301977 
  538000   -7.6747665   0.59499778   -7.0797687   0.95268253   0.39676437    3882.0255    1.0303899 
  539000   -7.6875238   0.59834234   -7.0891815    1.0947491   0.39899464    3869.1819    1.0338103 
  540000   -7.6643141   0.60176759   -7.0625465    1.0304937   0.40127872    3880.9658    1.0306713 
  541000   -7.6688802   0.60351781   -7.0653624   0.87641236   0.40244582    3889.4263    1.0284293 
  542000   -7.6604619   0.60108273   -7.0593792    1.0351886   0.40082203    3881.7958    1.0304509 
  543000   -7.6771063   0.60773198   -7.0693743    1.0429122   0.40525597    3877.0082    1.0317234 
  544000    -7.672932   0.59545084   -7.0774812    0.9899341   0.39706649    3881.1663    1.0306181 
  545000   -7.6694726   0.60462816   -7.0648445   0.91986241   0.40318624    3886.5297    1.0291958 
  546000   -7.6733947   0.60426196   -7.0691328    1.0179828   0.40294204    3879.6675    1.0310162 
  547000   -7.6715122   0.57826269   -7.0932495    1.1653114   0.38560486    3870.0471    1.0335791 
  548000   -7.6785345   0.59730342   -7.0812311   0.86717614   0.39830186    3886.6394    1.0291667 
  549000   -7.6637057   0.59623275   -7.0674729   0.99711409    0.3975879     3883.449    1.0300122 
  550000   -7.6846044   0.60344351   -7.0811609    1.1043417   0.40239627    3870.4763    1.0334645 
  551000   -7.6764747   0.59967321   -7.0768014    1.0213934   0.39988211     3878.028    1.0314521 
  552000   -7.6636016   0.59675571   -7.0668459   0.78109931   0.39793662     3895.985     1.026698 
  553000   -7.6805069   0.61087841   -7.0696285   0.99446221   0.40735411    3878.0181    1.0314547 
  554000    -7.685039    0.6072915   -7.0777475    1.1587621   0.40496224    3867.0824    1.0343716 
  555000   -7.6757525     0.600055   -7.0756975   0.92924297    0.4001367    3883.3109    1.0300489 
  556000    -7.667631   0.60054648   -7.0670845   0.88979539   0.40046444    3888.1983    1.0287541 
  557000   -7.6814084    0.6071528   -7.0742556    1.0077125   0.40486975    3876.6145    1.0318282 
  558000   -7.6911014   0.60898965   -7.0821118     1.041675   0.40609462    3872.0414    1.0330468 
  559000   -7.6617164   0.59007939    -7.071637    1.0363058   0.39348463    3881.0948     1.030637 
  560000    -7.661458   0.59636665   -7.0650913   0.95887493   0.39767718    3885.9544    1.0293482 
  561000   -7.6621793   0.59880754   -7.0633718    1.0698265   0.39930485    3879.3648    1.0310966 
  562000   -7.6745654   0.58969443    -7.084871    1.1074842   0.39322793     3872.765    1.0328538 
  563000   -7.6802146   0.59439535   -7.0858192   0.92042234   0.39636266    3882.4102    1.0302878 
  564000   -7.6734049   0.59996677   -7.0734381   0.92437774   0.40007787    3884.6556    1.0296923 
  565000   -7.6610339   0.60357394   -7.0574599    1.1736162   0.40248325    3873.6465    1.0326188 
  566000   -7.6780118   0.58844968   -7.0895621    1.0853551   0.39239789    3873.2574    1.0327225 
  567000   -7.6682102   0.59012772   -7.0780825   0.86812675   0.39351686    3889.4479    1.0284236 
  568000   -7.6645773   0.60432918   -7.0602481    0.9627405   0.40298687    3884.5846    1.0297111 
  569000   -7.6589788   0.60383023   -7.0551486    1.1121179   0.40265415    3877.8781    1.0314919 
  570000   -7.6729195   0.60158979   -7.0713298    1.0061731   0.40116015    3879.2388    1.0311301 
  571000   -7.6676755   0.58116154    -7.086514   0.99995105   0.38753791    3880.9121    1.0306855 
  572000   -7.6746189   0.58693731   -7.0876816   0.98986821   0.39138939    3879.4873    1.0310641 
  573000   -7.6758051   0.60349429   -7.0723108     1.060751   0.40243013    3875.8423    1.0320337 
  574000   -7.6641941   0.62541149   -7.0387826   0.95574349   0.41704525    3886.6947    1.0291521 
  575000   -7.6747543   0.59344156   -7.0813128   0.97732009   0.39572664    3880.6188    1.0307634 
  576000   -7.6781922   0.59711975   -7.0810724   0.95251754   0.39817938    3881.4555    1.0305413 
  577000   -7.6624643     0.611442   -7.0510223    1.0601646   0.40772994    3880.5378     1.030785 
  578000   -7.6630931   0.60833878   -7.0547543     1.112303    0.4056606    3877.0011    1.0317253 
  579000   -7.6926694   0.59297631   -7.0996931   0.76343787   0.39541639    3886.9913    1.0290736 
  580000   -7.6733459   0.60114361   -7.0722023   0.87125506   0.40086263    3887.5606    1.0289229 
  581000   -7.6702744   0.60704396   -7.0632305    1.1469808   0.40479718    3871.9677    1.0330665 
  582000   -7.6784272   0.59577777   -7.0826495    1.0386087    0.3972845    3875.8674    1.0320271 
  583000   -7.6758368   0.59475066   -7.0810861   0.88829794   0.39659959    3885.8103    1.0293863 
  584000   -7.6677823   0.60642029   -7.0613621   0.99091847   0.40438129    3882.1821    1.0303484 
  585000   -7.6734779   0.60326451   -7.0702134    1.0409028   0.40227691    3877.1323    1.0316904 
  586000   -7.6799886   0.58891322   -7.0910754    1.0021999   0.39270699    3876.8113    1.0317758 
  587000   -7.6886316   0.59846972   -7.0901618   0.96885301   0.39907958    3876.9037    1.0317512 
  588000   -7.6742907   0.60139939   -7.0728913    1.0279861   0.40103319    3877.7108    1.0315364 
  589000   -7.6608721   0.60529529   -7.0555768    1.0884057    0.4036311    3878.4245    1.0313466 
  590000   -7.6729785   0.60106775   -7.0719107   0.82333553   0.40081204     3890.287    1.0282018 
  591000   -7.6662736   0.60181889   -7.0644547    1.0268821   0.40131292    3880.5867     1.030772 
  592000   -7.6690513   0.59520517   -7.0738461    1.2262902   0.39690267    3867.7243    1.0341999 
  593000   -7.6713367   0.60307648   -7.0682602   0.96037749   0.40215152    3882.8509    1.0301709 
  594000   -7.6667097   0.58655119   -7.0801585   0.92776897   0.39113191    3885.3117    1.0295184 
  595000   -7.6926506   0.58873671   -7.1039139    1.0149148   0.39258929    3872.1218    1.0330254 
  596000   -7.6711669   0.60574255   -7.0654244   0.99842679   0.40392935    3880.7972    1.0307161 
  597000   -7.6653221    0.6037016   -7.0616205   0.97888903   0.40256838    3883.4214    1.0300196 
  598000   -7.6699617   0.60318585   -7.0667758    1.0137315   0.40222445    3880.1631    1.0308845 
  599000   -7.6775596   0.59686345   -7.0806962   0.97647565   0.39800847    3879.5289     1.031053 
  600000   -7.6670242   0.59597969   -7.0710446    1.0393069   0.39741915    3878.9689    1.0312019 
Loop time of 413.34 on 2 procs for 100000 steps with 4000 atoms

Performance: 104514.463 tau/day, 241.932 timesteps/s
99.3% CPU use with 2 MPI tasks x no OpenMP threads

MPI task timing breakdown:
Section |  min time  |  avg time  |  max time  |%varavg| %total
---------------------------------------------------------------
Pair    | 358.72     | 358.74     | 358.77     |   0.1 | 86.79
Neigh   | 35.023     | 35.052     | 35.082     |   0.5 |  8.48
Comm    | 9.8742     | 9.9444     | 10.015     |   2.2 |  2.41
Output  | 0.18111    | 0.18163    | 0.18214    |   0.1 |  0.04
Modify  | 8.3833     | 8.3972     | 8.4112     |   0.5 |  2.03
Other   |            | 1.02       |            |       |  0.25

Nlocal:    2000 ave 2007 max 1993 min
Histogram: 1 0 0 0 0 0 0 0 0 1
Nghost:    6641 ave 6643 max 6639 min
Histogram: 1 0 0 0 0 0 0 0 0 1
Neighs:    235170 ave 235953 max 234388 min
Histogram: 1 0 0 0 0 0 0 0 0 1

Total # of neighbors = 470341
Ave neighs/atom = 117.585
Neighbor list builds = 5000
Dangerous builds not checked
unfix   intnpt
undump  id

#Using Nvt to calculate the rdf and msd
compute   msd all msd average yes
compute   rdfnvt all rdf 100 1 1
fix       rdfnvt all ave/time ${Nevery} ${Nrepeat} ${Nfreq} c_rdfnvt[*] file systemnvt.rdf mode vector
fix       rdfnvt all ave/time 1000 ${Nrepeat} ${Nfreq} c_rdfnvt[*] file systemnvt.rdf mode vector
fix       rdfnvt all ave/time 1000 100 ${Nfreq} c_rdfnvt[*] file systemnvt.rdf mode vector
fix       rdfnvt all ave/time 1000 100 100000 c_rdfnvt[*] file systemnvt.rdf mode vector
thermo    ${nthermo}
thermo    1000
thermo_style custom step pe ke etotal press temp vol c_msd[4]
dump      idnvt all atom 1000 out.dump.nvt.lammpstrj
restart   100000 restartnpt1.data restartnp2.data

fix       intnvt all nvt temp ${temp} ${temp} ${tdamp}
fix       intnvt all nvt temp 0.4 ${temp} ${tdamp}
fix       intnvt all nvt temp 0.4 0.4 ${tdamp}
fix       intnvt all nvt temp 0.4 0.4 1
run       400000
Neighbor list info ...
  update every 20 steps, delay 0 steps, check no
  max neighbors/atom: 2000, page size: 100000
  master list distance cutoff = 3.8
  ghost atom cutoff = 3.8
  binsize = 1.9, bins = 9 9 9
  2 neighbor lists, perpetual/occasional/extra = 1 1 0
  (1) pair lj/cut, perpetual
      attributes: half, newton on
      pair build: half/bin/atomonly/newton
      stencil: half/bin/3d/newton
      bin: standard
  (2) compute rdf, occasional, copy from (1)
      attributes: half, newton on
      pair build: copy
      stencil: none
      bin: none
Per MPI rank memory allocation (min/avg/max) = 5.127 | 5.127 | 5.127 Mbytes
Step PotEng KinEng TotEng Press Temp Volume c_msd[4] 
  600000   -7.6670242   0.59597969   -7.0710446    1.0393069   0.39741915    3878.9689            0 
  601000   -7.6691765   0.59848239   -7.0706941    1.0305325   0.39908803    3878.9689 0.0090423677 
  602000   -7.6901392   0.60191061   -7.0882286   0.91898669   0.40137408    3878.9689  0.011578207 
  603000   -7.6787287   0.58981566   -7.0889131   0.98223996   0.39330877    3878.9689  0.014105271 
  604000   -7.6757369   0.59065938   -7.0850775    1.0036372   0.39387139    3878.9689  0.012879676 
  605000    -7.673156   0.60081248   -7.0723435    1.0214268   0.40064181    3878.9689  0.012584992 
  606000   -7.6767845   0.61114503   -7.0656395    1.0109203    0.4075319    3878.9689  0.017897585 
  607000   -7.6802753   0.60374968   -7.0765256   0.97879275   0.40260043    3878.9689  0.015131348 
  608000   -7.6927392   0.60500045   -7.0877387   0.91392094   0.40343449    3878.9689  0.013782673 
  609000   -7.6938106   0.59583614   -7.0979745   0.90810319   0.39732342    3878.9689  0.012697807 
  610000    -7.695104   0.59103383   -7.1040702   0.89472873   0.39412108    3878.9689  0.012445324 
  611000   -7.6975224   0.59179076   -7.1057317   0.88593322   0.39462583    3878.9689  0.011956768 
  612000   -7.7007143   0.61293507   -7.0877792   0.86952557   0.40872556    3878.9689  0.013120826 
  613000   -7.6957199   0.61033859   -7.0853813   0.90559954   0.40699414    3878.9689  0.013045608 
  614000   -7.6777582   0.58921517    -7.088543   0.98404012   0.39290834    3878.9689  0.011911923 
  615000   -7.7059235   0.60107285   -7.1048507   0.83314319   0.40081543    3878.9689  0.010905951 
  616000   -7.7021127   0.59207836   -7.1100344   0.85029551   0.39481761    3878.9689  0.011288552 
  617000   -7.6970375   0.59888851    -7.098149   0.88404261   0.39935884    3878.9689  0.010767991 
  618000   -7.6866063   0.59743557   -7.0891707   0.93136847   0.39838998    3878.9689  0.010117045 
  619000    -7.676091   0.59566407   -7.0804269   0.98848213   0.39720868    3878.9689 0.0097625479 
  620000   -7.6806414   0.61591226   -7.0647292   0.98422425   0.41071085    3878.9689  0.011101163 
  621000    -7.683796   0.58910973   -7.0946862    0.9505687   0.39283803    3878.9689  0.010212562 
  622000    -7.696657   0.59867033   -7.0979867   0.88944462   0.39921336    3878.9689  0.010064933 
  623000   -7.6798812   0.60475156   -7.0751296   0.98331685   0.40326853    3878.9689   0.01065695 
  624000   -7.6811902   0.60987436   -7.0713159   0.97560007   0.40668458    3878.9689  0.010338598 
  625000   -7.6909421   0.61163584   -7.0793062   0.92273596   0.40785919    3878.9689  0.010658628 
  626000   -7.6905264   0.60784504   -7.0826814   0.91431215   0.40533136    3878.9689  0.010181536 
  627000    -7.678156   0.58745316   -7.0907029   0.97842502   0.39173337    3878.9689   0.01304696 
  628000   -7.6874046   0.60464006   -7.0827645   0.94234369   0.40319417    3878.9689  0.013289517 
  629000   -7.6781918   0.60223289   -7.0759589   0.99171604   0.40158899    3878.9689 0.0099195267 
  630000   -7.6760308   0.60704572   -7.0689851    1.0039056   0.40479834    3878.9689 0.0091140384 
  631000   -7.6872887    0.6036429   -7.0836458   0.93712915   0.40252923    3878.9689 0.0085390174 
  632000   -7.6921601   0.59908151   -7.0930786   0.90637791   0.39948754    3878.9689 0.0085726449 
  633000   -7.6865605   0.58786112   -7.0986993   0.93588187   0.39200541    3878.9689  0.010430641 
  634000   -7.6873114   0.60883251   -7.0784789    0.9481561   0.40598984    3878.9689 0.0096862351 
  635000   -7.6846024   0.60990158   -7.0747008   0.96061885   0.40670273    3878.9689 0.0091171585 
  636000   -7.6923841   0.61382699   -7.0785571   0.91122033   0.40932032    3878.9689 0.0085743788 
  637000   -7.6898463    0.6023282   -7.0875181   0.92219007   0.40165255    3878.9689 0.0090011631 
  638000   -7.7116285   0.60173253    -7.109896   0.80055453   0.40125534    3878.9689 0.0081455583 
  639000   -7.6935422   0.58209601   -7.1114462   0.89154743   0.38816105    3878.9689 0.0090933418 
  640000   -7.6996607   0.60629173    -7.093369   0.87423535   0.40429556    3878.9689 0.0088791669 
  641000   -7.6896239   0.60953888    -7.080085   0.93094603   0.40646087    3878.9689 0.0098787751 
  642000   -7.6931706   0.61117763    -7.081993   0.91278406   0.40755364    3878.9689    0.0100686 
  643000   -7.6966553   0.60456128    -7.092094   0.88376801   0.40314164    3878.9689  0.011258979 
  644000   -7.6943976   0.59855483   -7.0958428   0.88732814   0.39913634    3878.9689  0.011717327 
  645000   -7.6928606   0.59495285   -7.0979077   0.89746099   0.39673441    3878.9689   0.01494733 
  646000   -7.6857422   0.59923089   -7.0865114   0.94120195   0.39958715    3878.9689  0.013967281 
  647000   -7.6827506   0.60316135   -7.0795892   0.96473511   0.40220812    3878.9689  0.017972556 
  648000    -7.679645   0.59186268   -7.0877823   0.97346338   0.39467379    3878.9689  0.011789391 
  649000   -7.6872284   0.59757852   -7.0896499   0.93260243    0.3984853    3878.9689  0.014373703 
  650000   -7.6867496    0.5835886    -7.103161   0.92630295   0.38915636    3878.9689  0.013952204 
  651000   -7.6836395   0.58999725   -7.0936422   0.94520443   0.39342986    3878.9689  0.013958321 
  652000   -7.6901897   0.60709295   -7.0830968   0.91843682   0.40482984    3878.9689  0.012806884 
  653000   -7.6753148   0.58985887   -7.0854559   0.99207899   0.39333758    3878.9689  0.010190515 
  654000   -7.7061237   0.60994059   -7.0961831    0.8289887   0.40672874    3878.9689 0.0096347443 
  655000   -7.6910666   0.59015903   -7.1009076   0.89661134   0.39353774    3878.9689 0.0097432591 
  656000   -7.6967807   0.59026151   -7.1065192   0.86854852   0.39360607    3878.9689  0.010086715 
  657000   -7.6847147    0.5948371   -7.0898776   0.94755111   0.39665723    3878.9689  0.011129629 
  658000   -7.6834308   0.61130629   -7.0721245    0.9599572   0.40763944    3878.9689  0.012326026 
  659000   -7.6855628   0.60431974    -7.081243   0.93843845   0.40298058    3878.9689  0.012651995 
  660000   -7.6930988   0.59810512   -7.0949937    0.8995847   0.39883645    3878.9689  0.011855052 
  661000   -7.6977449    0.6004039    -7.097341   0.86869068   0.40036936    3878.9689  0.011521408 
  662000   -7.6913705   0.60482448   -7.0865461   0.91043963   0.40331715    3878.9689  0.012154266 
  663000   -7.6844311    0.6061977   -7.0782334   0.94720652   0.40423286    3878.9689  0.011379539 
  664000   -7.6945036   0.60292077   -7.0915828   0.89234286   0.40204769    3878.9689  0.010576574 
  665000   -7.6992643   0.59824501   -7.1010193   0.87064918   0.39892974    3878.9689  0.010896498 
  666000   -7.6948555    0.5993392   -7.0955163   0.88598823   0.39965938    3878.9689  0.011069549 
  667000   -7.6897763   0.60794496   -7.0818314   0.92928734   0.40539799    3878.9689  0.010681455 
  668000   -7.6859354   0.61025382   -7.0756816   0.94754406   0.40693761    3878.9689  0.011112319 
[...]
 5316000   -4.4966676    1.9559623   -2.5407054    1.0386556    1.3043009    5816.6111    336.95944 
 5317000   -4.5019657     1.978063   -2.5239028    1.0304099    1.3190384    5816.6111    339.42346 
 5318000     -4.49273    1.9644044   -2.5283256    1.0368237    1.3099304    5816.6111    342.21184 
 5319000   -4.4773497    1.9714187    -2.505931    1.0971062    1.3146078    5816.6111    343.98295 
 5320000   -4.4867047     1.988394   -2.4983107    1.0528648    1.3259275    5816.6111    345.81718 
 5321000   -4.4989494    1.9648229   -2.5341265    1.0404405    1.3102095    5816.6111    347.08643 
 5322000   -4.4876946    1.9668596   -2.5208351    1.1225142    1.3115676    5816.6111    349.14085 
 5323000   -4.4547487    1.9321652   -2.5225835    1.1660437    1.2884323    5816.6111    350.96934 
 5324000    -4.504106    1.9385097   -2.5655963   0.98932447     1.292663    5816.6111    353.56189 
 5325000   -4.4922061    1.9343676   -2.5578386    1.0033751    1.2899009    5816.6111    355.32238 
 5326000   -4.4920886    1.9648525   -2.5272361    1.0218685    1.3102292    5816.6111    356.31332 
 5327000    -4.499772    1.9323929   -2.5673791    1.0247191    1.2885841    5816.6111    358.16575 
 5328000   -4.4875383    1.9346317   -2.5529065    1.0546776     1.290077    5816.6111    361.51155 
 5329000   -4.5092939    1.9823699   -2.5269241   0.98310573    1.3219104    5816.6111    363.03594 
 5330000   -4.4815926    1.9514119   -2.5301807    1.0817743    1.3012666    5816.6111    363.59974 
 5331000    -4.478489    1.9399114   -2.5385776    1.0834739    1.2935977    5816.6111    365.43469 
 5332000   -4.4755354    1.9351439   -2.5403916    1.0832434    1.2904185    5816.6111    366.91985 
 5333000   -4.5040763    1.9892354   -2.5148409   0.93246018    1.3264886    5816.6111    368.94067 
 5334000   -4.4811564    1.9761485   -2.5050079     1.051853    1.3177618    5816.6111    370.21169 
 5335000   -4.4682092    1.9752047   -2.4930045    1.1815517    1.3171324    5816.6111    372.48194 
 5336000   -4.4671301    2.0002071   -2.4669229    1.1637637    1.3338049    5816.6111    372.89397 
 5337000   -4.4799649    1.9766019   -2.5033629    1.1231659    1.3180641    5816.6111    374.75489 
 5338000   -4.4799575    1.9677975     -2.51216    1.0608092    1.3121931    5816.6111    377.13025 
 5339000   -4.5214465    1.9990059   -2.5224406   0.96046402    1.3330039    5816.6111    380.23558 
 5340000    -4.507398    1.9360536   -2.5713444   0.99929659    1.2910251    5816.6111    380.29256 
 5341000   -4.4882859    1.9237561   -2.5645298   0.99027086    1.2828247    5816.6111    381.81555 
 5342000   -4.4808017    1.9564068   -2.5243949    1.0836689    1.3045974    5816.6111    383.75951 
 5343000   -4.4502695     1.949228   -2.5010415    1.2308485    1.2998103    5816.6111    385.09959 
 5344000   -4.4804269    1.9383502   -2.5420768    1.0620458    1.2925566    5816.6111    387.51083 
 5345000   -4.5007637    1.9373541   -2.5634096   0.92880442    1.2918924    5816.6111    388.74596 
 5346000   -4.5202671    1.9319815   -2.5882856   0.91294157    1.2883097    5816.6111    390.09078 
 5347000   -4.5003859    1.9197512   -2.5806347   0.94713609    1.2801542    5816.6111    391.61763 
 5348000    -4.479246    1.9578204   -2.5214255    1.1210137      1.30554    5816.6111    392.59835 
 5349000   -4.4923829    1.9805202   -2.5118627    1.0853829     1.320677    5816.6111    394.00559 
 5350000    -4.463967    1.9370066   -2.5269604    1.1161792    1.2916607    5816.6111    395.50717 
 5351000   -4.4811663    1.9769206   -2.5042457    1.0717287    1.3182766    5816.6111    396.95233 
 5352000   -4.4872773    1.9475648   -2.5397125    1.0762203    1.2987012    5816.6111     398.3155 
 5353000   -4.5076566    1.9718061   -2.5358505   0.97157305    1.3148661    5816.6111    399.80994 
 5354000   -4.4816387    1.9323695   -2.5492692    1.1071086    1.2885685    5816.6111    400.62769 
 5355000   -4.4867634    1.9446538   -2.5421096    1.0623106    1.2967601    5816.6111    402.04405 
 5356000   -4.4656875    1.9205535   -2.5451341    1.1330999    1.2806892    5816.6111    404.32617 
 5357000   -4.4602725    1.9270366   -2.5332359     1.118934    1.2850123    5816.6111    406.10068 
 5358000   -4.4878805    1.9894756   -2.4984049     1.054657    1.3266487    5816.6111    406.85329 
 5359000   -4.4628376     1.934304   -2.5285336    1.1617869    1.2898585    5816.6111    407.90807 
 5360000   -4.4683606    1.9624286   -2.5059321    1.1026371    1.3086129    5816.6111    409.17186 
 5361000   -4.4976323    2.0041702   -2.4934621    1.0648733    1.3364476    5816.6111    410.67592 
 5362000   -4.5108583    1.9838013    -2.527057   0.98583443    1.3228649    5816.6111    411.95121 
 5363000   -4.4828638    1.9807614   -2.5021025    1.0654889    1.3208378    5816.6111    414.35396 
 5364000   -4.4762936     1.943009   -2.5332846    1.0979015    1.2956632    5816.6111    415.24223 
 5365000   -4.4802155    1.9566458   -2.5235697    1.0962652    1.3047567    5816.6111    416.96925 
 5366000   -4.5028415    1.9367188   -2.5661227   0.94656058    1.2914687    5816.6111    419.31197 
 5367000   -4.5233785    1.9302043   -2.5931742   0.82964145    1.2871247    5816.6111    420.36891 
 5368000   -4.4913741    1.9342928   -2.5570812    1.0537469     1.289851    5816.6111     420.8301 
 5369000   -4.4843849    1.9490926   -2.5352923    1.0448374      1.29972    5816.6111    422.21932 
 5370000   -4.4831035    1.9748635     -2.50824    1.1022224    1.3169049    5816.6111     424.8332 
 5371000   -4.4774557    1.9716805   -2.5057752     1.104359    1.3147823    5816.6111    428.48902 
 5372000   -4.4882802    2.0099249   -2.4783552    1.0227733     1.340285    5816.6111    430.97392 
 5373000   -4.5056466    2.0155061   -2.4901404   0.99543967    1.3440068    5816.6111    433.31327 
 5374000   -4.4769481    1.9725652   -2.5043829     1.092432    1.3153723    5816.6111    434.81207 
 5375000   -4.4815012    1.9596252   -2.5218759      1.03187    1.3067435    5816.6111    436.06227 
 5376000   -4.4874667    1.9539805   -2.5334862    1.0707234    1.3029794    5816.6111    436.33891 
 5377000   -4.4895887    1.9249587     -2.56463    1.0252447    1.2836267    5816.6111    438.12783 
 5378000   -4.5034255    1.9350511   -2.5683744    1.0247085    1.2903566    5816.6111    439.89571 
 5379000   -4.4777573    1.9681307   -2.5096266    1.0686986    1.3124152    5816.6111    442.54732 
 5380000   -4.4578775    1.9646993   -2.4931782    1.1703076    1.3101271    5816.6111    443.81296 
 5381000   -4.4855096    1.9675294   -2.5179802    1.0457701    1.3120143    5816.6111     445.3821 
 5382000   -4.5145632    1.9841841   -2.5303791   0.93369947    1.3231202    5816.6111    446.34574 
 5383000   -4.4586626    1.9585891   -2.5000735    1.1426875    1.3060526    5816.6111    447.67012 
 5384000   -4.4926529    1.9765109    -2.516142    1.0612463    1.3180034    5816.6111    450.00862 
 5385000   -4.4678075     1.941551   -2.5262565    1.0939714     1.294691    5816.6111    453.69665 
 5386000   -4.5174567    1.9988493   -2.5186074   0.96621255    1.3328995    5816.6111    455.83007 
 5387000   -4.4729257    1.9325892   -2.5403366    1.1476448     1.288715    5816.6111    458.56589 
 5388000   -4.4884157    1.9661327   -2.5222831    1.0847244    1.3110829    5816.6111    460.66916 
 5389000   -4.4598283    1.9653161   -2.4945122    1.2063935    1.3105384    5816.6111    463.50103 
 5390000   -4.4720788     1.946896   -2.5251828    1.1278246    1.2982552    5816.6111    464.47178 
 5391000    -4.505582    1.9780934   -2.5274886   0.96015052    1.3190587    5816.6111    465.47166 
 5392000   -4.4630827    1.9642462   -2.4988365    1.1727961    1.3098249    5816.6111     465.6517 
 5393000   -4.4923931    1.9646193   -2.5277738    1.0193527    1.3100737    5816.6111    467.65836 
 5394000   -4.4656155    1.9673771   -2.4982384    1.2010126    1.3119127    5816.6111    469.64267 
 5395000   -4.4760673    1.9462171   -2.5298502     1.120672    1.2978025    5816.6111    471.54174 
 5396000     -4.49749    1.9592805   -2.5382096   0.93861068    1.3065136    5816.6111    471.73305 
 5397000   -4.4558957    1.9322605   -2.5236353     1.131171    1.2884958    5816.6111    474.24607 
 5398000   -4.4924788    1.9459919   -2.5464869    1.0819392    1.2976524    5816.6111    476.04113 
 5399000   -4.4987967    1.9318506   -2.5669461    1.0601899    1.2882224    5816.6111    475.83257 
 5400000   -4.5002732    1.9090598   -2.5912133    1.0334432    1.2730248    5816.6111    476.74227 
 5401000   -4.5093442    1.9509346   -2.5584097   0.98357409    1.3009483    5816.6111     478.2469 
 5402000   -4.4749076    1.9408373   -2.5340703     1.105117    1.2942151    5816.6111    480.16401 
 5403000   -4.4666582    1.9269973   -2.5396609     1.150578    1.2849861    5816.6111     480.9578 
 5404000   -4.4897335    1.9454865   -2.5442469    1.0719496    1.2973153    5816.6111    481.48758 
 5405000   -4.5074592    1.9368799   -2.5705793   0.97612896    1.2915762    5816.6111    483.56605 
 5406000   -4.4714275    1.9180281   -2.5533994    1.1126892    1.2790051    5816.6111    484.46268 
 5407000   -4.4970007    1.9277067    -2.569294   0.96106213    1.2854592    5816.6111    486.34641 
 5408000   -4.5066872    1.9444892    -2.562198   0.97145548    1.2966503    5816.6111    488.56039 
 5409000   -4.5174933    1.9535712   -2.5639221    0.9923372    1.3027065    5816.6111    490.35641 
 5410000   -4.4638576    1.9289331   -2.5349244    1.1599551     1.286277    5816.6111    492.47867 
 5411000   -4.4678794    1.9499268   -2.5179526     1.161533    1.3002763    5816.6111     495.0802 
 5412000   -4.4557162    1.9543636   -2.5013527    1.1181855    1.3032348    5816.6111    495.66629 
 5413000   -4.4454929    1.9622518   -2.4832412     1.189568     1.308495    5816.6111     498.2719 
 5414000   -4.4466605    1.9440701   -2.5025903     1.221815    1.2963708    5816.6111    499.84597 
 5415000   -4.4792562    1.9469527   -2.5323035    1.0670697     1.298293    5816.6111    502.61185 
 5416000   -4.4935717    1.9773757    -2.516196    1.0055971    1.3185801    5816.6111    502.64022 
 5417000   -4.4776301    1.9607092   -2.5169209    1.1279161    1.3074663    5816.6111     503.4326 
 5418000   -4.4877024    1.9749481   -2.5127543    1.0510149    1.3169613    5816.6111    505.08378 
 5419000   -4.4769037    1.9491186   -2.5277851    1.0733464    1.2997374    5816.6111    506.03767 
 5420000   -4.4865599    1.9297493   -2.5568105    1.1016754    1.2868213    5816.6111    506.78631 
 5421000    -4.515238    1.9718187   -2.5434192   0.96588112    1.3148745    5816.6111    508.09975 
 5422000    -4.507832    1.9266907   -2.5811413   0.92363005    1.2847817    5816.6111    509.36314 
 5423000    -4.482126    1.9306889   -2.5514371     1.036969    1.2874478    5816.6111    511.16427 
 5424000   -4.4804019    1.9158496   -2.5645523    1.0569776    1.2775524    5816.6111    511.76849 
 5425000   -4.5215583    1.9181462   -2.6034121    0.9411434    1.2790839    5816.6111     513.6577 
 5426000   -4.5084768    1.9102993   -2.5981775   0.97754179    1.2738514    5816.6111    515.89158 
 5427000   -4.4824381    1.9334394   -2.5489987    1.0227693    1.2892819    5816.6111      516.189 
 5428000   -4.4928337    1.9445319   -2.5483018   0.99654401    1.2966788    5816.6111    517.21843 
 5429000   -4.4981127    1.9361685   -2.5619442   0.95041639    1.2911018    5816.6111    519.43503 
 5430000   -4.4842537    1.9158892   -2.5683645    1.0317814    1.2775789    5816.6111    520.49027 
 5431000   -4.4619469    1.8988412   -2.5631057    1.0850466    1.2662107    5816.6111    523.07674 
 5432000   -4.5211198    1.9165752   -2.6045446   0.91035318    1.2780363    5816.6111    524.94258 
 5433000   -4.4969252    1.9257711   -2.5711541    1.0259395    1.2841684    5816.6111    524.64043 
 5434000   -4.4840886    1.9364306   -2.5476581    1.0005971    1.2912765    5816.6111    525.47699 
 5435000   -4.4937956    1.9608819   -2.5329137    1.0219888    1.3075815    5816.6111    528.55018 
 5436000   -4.5031799    2.0164757   -2.4867041    1.0481932    1.3446533    5816.6111     530.2714 
 5437000   -4.4723775    1.9805518   -2.4918258    1.1367738     1.320698    5816.6111    533.50383 
 5438000   -4.4801418    1.9715004   -2.5086414    1.1263817    1.3146622    5816.6111    534.25756 
 5439000   -4.4693642    1.9402094   -2.5291548    1.1125664    1.2937964    5816.6111    534.21782 
 5440000   -4.4502301    1.9392588   -2.5109712    1.2294383    1.2931625    5816.6111    534.72108 
 5441000   -4.5011239    1.9672628   -2.5338611   0.98640184    1.3118365    5816.6111    535.87173 
 5442000   -4.4573346    1.9477675   -2.5095671    1.1360583    1.2988364    5816.6111    537.82796 
 5443000   -4.4960475    1.9651833   -2.5308643    1.0014808    1.3104498    5816.6111    541.55576 
 5444000   -4.4956407    1.9598683   -2.5357724   0.97854986    1.3069056    5816.6111    542.66791 
 5445000   -4.4881018    1.9498133   -2.5382885    1.0457636    1.3002006    5816.6111    544.43439 
 5446000   -4.4790529    1.9496805   -2.5293724    1.0258563     1.300112    5816.6111     546.6839 
 5447000   -4.4962438    1.9046557   -2.5915881    1.0168263     1.270088    5816.6111    549.79089 
 5448000   -4.4833474    1.9169757   -2.5663717    1.0747209    1.2783034    5816.6111    551.04692 
 5449000   -4.5070251    1.9497417   -2.5572834   0.92692786    1.3001528    5816.6111    553.15087 
 5450000   -4.5084189    1.9611775   -2.5472413    1.0042242    1.3077786    5816.6111    554.32931 
 5451000   -4.5023749    1.9325778   -2.5697971   0.98831778    1.2887074    5816.6111    555.07915 
 5452000    -4.495998    1.9387016   -2.5572964    1.0379404    1.2927909    5816.6111     556.4256 
 5453000    -4.491389    1.9307451    -2.560644    1.0054687    1.2874852    5816.6111    557.91621 
 5454000   -4.4755237     1.969648   -2.5058756    1.0764358     1.313427    5816.6111     560.5542 
 5455000   -4.4870448    1.9797926   -2.5072522    1.0908831    1.3201917    5816.6111    561.04254 
 5456000   -4.4900493    1.9554549   -2.5345944    1.0050223    1.3039626    5816.6111    562.24822 
 5457000   -4.4967217    1.9766827   -2.5200389    1.0882062     1.318118    5816.6111    563.77123 
 5458000   -4.5169857    1.9868068   -2.5301789   0.97145913    1.3248691    5816.6111    567.20248 
 5459000   -4.4752492    1.9491405   -2.5261087    1.0974742     1.299752    5816.6111    567.98386 
 5460000   -4.5006614    1.9780061   -2.5226553    1.0026106    1.3190005    5816.6111    568.08172 
 5461000   -4.4903025    1.9664464   -2.5238562    1.0144513    1.3112921    5816.6111    569.81465 
 5462000   -4.4919778    1.9175365   -2.5744413    1.0159997    1.2786774    5816.6111    571.92035 
 5463000    -4.498712    1.9128989    -2.585813    1.0413015    1.2755848    5816.6111    573.07163 
 5464000   -4.4982241    1.9378607   -2.5603634    1.0496754    1.2922302    5816.6111    573.62364 
 5465000   -4.4869616    1.9212314   -2.5657302     1.019522    1.2811412    5816.6111     574.0727 
 5466000   -4.5127124    1.9625898   -2.5501226   0.94691438    1.3087204    5816.6111    574.65449 
 5467000    -4.460053    1.9631746   -2.4968784    1.1513097    1.3091104    5816.6111    577.40033 
 5468000   -4.4585827    1.9360048   -2.5225779    1.2313225    1.2909926    5816.6111    578.82457 
 5469000   -4.4823302    1.9499219   -2.5324083    1.0916783     1.300273    5816.6111    578.52529 
 5470000   -4.4906979     1.977918   -2.5127799    1.0654906    1.3189417    5816.6111    579.91458 
 5471000   -4.4608998    1.9623231   -2.4985767    1.1500321    1.3085426    5816.6111    581.75684 
 5472000   -4.4769192     2.003483   -2.4734362    1.0815756    1.3359893    5816.6111    583.81255 
 5473000   -4.4573955     1.989255   -2.4681405    1.1549105    1.3265016    5816.6111    585.48415 
 5474000   -4.5060289    1.9822557   -2.5237732   0.96691047    1.3218343    5816.6111    587.00892 
 5475000   -4.4691263    1.9434259   -2.5257003    1.1218476    1.2959413    5816.6111    589.80453 
 5476000   -4.4956587    1.9659067   -2.5297519    1.0079463    1.3109322    5816.6111    591.53609 
 5477000   -4.4809934    1.9330151   -2.5479782    1.0743993     1.288999    5816.6111    592.38664 
 5478000   -4.4747547    1.8954027    -2.579352    1.1028661    1.2639178    5816.6111    593.00272 
 5479000   -4.4885583     1.928275   -2.5602833    1.0117196    1.2858382    5816.6111    593.81258 
 5480000   -4.5196485    1.9805655    -2.539083   0.94020038    1.3207072    5816.6111    594.08937 
 5481000   -4.4781338    1.9544514   -2.5236824    1.0841105    1.3032934    5816.6111    594.64573 
 5482000   -4.4570295    1.9767224   -2.4803072    1.2034788    1.3181445    5816.6111    596.73283 
 5483000   -4.4717534    1.9822071   -2.4895463    1.1314308    1.3218019    5816.6111    598.91758 
 5484000    -4.478553    1.9758861   -2.5026669    1.1317359    1.3175868    5816.6111    600.19805 
 5485000   -4.4865462    2.0075014   -2.4790448    1.0813949    1.3386689    5816.6111    600.71899 
 5486000   -4.4464743     1.957927   -2.4885473    1.2000813    1.3056111    5816.6111    602.01457 
 5487000    -4.479962    1.9693076   -2.5106545    1.0811361       1.3132    5816.6111    602.89853 
 5488000   -4.4798003    1.9638491   -2.5159513    1.1107419    1.3095601    5816.6111    604.32445 
 5489000   -4.4773705    1.9614072   -2.5159632     1.137171    1.3079318    5816.6111    605.86223 
 5490000   -4.4950651    1.9494052     -2.54566    1.0248687    1.2999284    5816.6111    607.58065 
 5491000   -4.4978017    1.9604423   -2.5373595    1.0094993    1.3072883    5816.6111    609.37302 
 5492000    -4.483968     1.932386    -2.551582    1.0325835    1.2885795    5816.6111    611.11837 
 5493000   -4.4917605    1.9255122   -2.5662484    1.0066281    1.2839958    5816.6111    612.45737 
 5494000    -4.502814    1.9441175   -2.5586965   0.98797606    1.2964024    5816.6111    615.01685 
 5495000   -4.4818632    1.8930472    -2.588816    1.0626503     1.262347    5816.6111    614.67214 
 5496000   -4.4906622    1.8843453   -2.6063169    1.0681893    1.2565444    5816.6111    615.36098 
 5497000   -4.4782493    1.9054206   -2.5728287     1.030733     1.270598    5816.6111    615.61217 
 5498000   -4.4941966    1.9505248   -2.5436718     1.063318     1.300675    5816.6111    615.23793 
 5499000   -4.4840281    1.9273639   -2.5566642    1.0468807    1.2852306    5816.6111    616.02267 
 5500000   -4.4848372    1.9096185   -2.5752188    1.0508212    1.2733973    5816.6111    616.48713 
Loop time of 1203.51 on 2 procs for 400000 steps with 4000 atoms

Performance: 143580.575 tau/day, 332.362 timesteps/s
99.3% CPU use with 2 MPI tasks x no OpenMP threads

MPI task timing breakdown:
Section |  min time  |  avg time  |  max time  |%varavg| %total
---------------------------------------------------------------
Pair    | 994.5      | 1015.8     | 1037       |  66.7 | 84.40
Neigh   | 115.53     | 116.38     | 117.24     |   7.9 |  9.67
Comm    | 28.652     | 50.806     | 72.959     | 310.8 |  4.22
Output  | 0.76353    | 0.76526    | 0.767      |   0.2 |  0.06
Modify  | 15.774     | 15.806     | 15.838     |   0.8 |  1.31
Other   |            | 3.982      |            |       |  0.33

Nlocal:    2000 ave 2002 max 1998 min
Histogram: 1 0 0 0 0 0 0 0 0 1
Nghost:    5433 ave 5443 max 5423 min
Histogram: 1 0 0 0 0 0 0 0 0 1
Neighs:    156910 ave 159853 max 153968 min
Histogram: 1 0 0 0 0 0 0 0 0 1

Total # of neighbors = 313821
Ave neighs/atom = 78.4553
Neighbor list builds = 20000
Dangerous builds not checked
unfix     intnvt
unfix     rdfnvt
uncompute rdfnvt
uncompute msd
undump    idnvt

next      a
jump      in.melt temploop #it will again transfer the call to label temploop line
Total wall time: 6:22:07
