thermo		${nthermo}
thermo		1000
thermo_style custom step pe ke etotal press temp vol density
dump		id all atom 1000 out.dump.npt.${temp}.lammpstrj
dump		id all atom 1000 out.dump.npt.0.8.lammpstrj
restart 100000 restartnvt1.data restartnvt2.data

fix 		intnpt all npt temp ${temp} ${temp} ${tdamp} iso ${pext} ${pext} ${pdamp}
fix 		intnpt all npt temp 0.8 ${temp} ${tdamp} iso ${pext} ${pext} ${pdamp}
fix 		intnpt all npt temp 0.8 0.8 ${tdamp} iso ${pext} ${pext} ${pdamp}
fix 		intnpt all npt temp 0.8 0.8 1 iso ${pext} ${pext} ${pdamp}
fix 		intnpt all npt temp 0.8 0.8 1 iso 1 ${pext} ${pdamp}
fix 		intnpt all npt temp 0.8 0.8 1 iso 1 1 ${pdamp}
fix 		intnpt all npt temp 0.8 0.8 1 iso 1 1 10
run		  100000
Neighbor list info ...
  update every 20 steps, delay 0 steps, check no
  max neighbors/atom: 2000, page size: 100000
  master list distance cutoff = 3.8
  ghost atom cutoff = 3.8
  binsize = 1.9, bins = 9 9 9
  1 neighbor lists, perpetual/occasional/extra = 1 0 0
  (1) pair lj/cut, perpetual
      attributes: half, newton on
      pair build: half/bin/atomonly/newton
      stencil: half/bin/3d/newton
      bin: standard
Per MPI rank memory allocation (min/avg/max) = 4.751 | 4.751 | 4.751 Mbytes
Step PotEng KinEng TotEng Press Temp Volume Density 
 2500000   -7.1000827    1.0487511   -6.0513316   0.98921927   0.69934227    4103.2521   0.97483653 
 2501000   -6.8656969    1.2048327   -5.6608642   0.95169988   0.80342268    4208.9044   0.95036608 
 2502000   -6.8183128    1.2208327   -5.5974801   0.94141584   0.81409198     4229.332   0.94577584 
 2503000   -6.8357415    1.2144684   -5.6212732   0.99616407   0.80984803     4218.292    0.9482511 
 2504000   -6.8080129     1.185428    -5.622585   0.99750087   0.79048293     4226.912   0.94631732 
 2505000   -6.7799595    1.2064896   -5.5734699   0.95576617   0.80452754    4244.8553   0.94231716 
 2506000   -6.8430551    1.2122873   -5.6307678    1.0048164   0.80839363    4214.8471   0.94902613 
 2507000   -6.7972731    1.2095966   -5.5876765   0.92022657   0.80659941    4241.1054   0.94315034 
 2508000   -6.7852284    1.1862452   -5.5989832    1.0334857   0.79102792    4235.6303   0.94436948 
 2509000   -6.8511463    1.2145104   -5.6366358   0.98408233   0.80987608    4212.1604   0.94963146 
 2510000   -6.7945928    1.2056693   -5.5889235   0.97996328   0.80398051    4235.4768   0.94440371 
 2511000   -6.8620444    1.1841676   -5.6778768   0.94983852   0.78964245    4208.1774   0.95053027 
 2512000   -6.7758921    1.1926659   -5.5832262     1.016283   0.79530945    4239.8064   0.94343931 
 2513000   -6.8111955       1.2068   -5.6043955    1.0054838    0.8047345    4227.3473   0.94621986 
 2514000   -6.8209771    1.2006012   -5.6203759    1.0186775   0.80060093    4221.0225    0.9476377 
 2515000   -6.8100871    1.2030285   -5.6070586    1.0285365   0.80221953    4224.4841   0.94686118 
 2516000   -6.8635609    1.2125735   -5.6509874    1.1396726   0.80858448    4193.5673   0.95384186 
 2517000   -6.8139268    1.2038761   -5.6100507    1.0777667   0.80278475    4219.4274   0.94799593 
 2518000   -6.7745614    1.1674289   -5.6071325   0.96098514   0.77848054     4243.541   0.94260901 
 2519000    -6.826678    1.1805012   -5.6461768   0.67629167    0.7871976    4245.2236   0.94223541 
 2520000   -6.8235766    1.2005583   -5.6230183   0.91044734   0.80057232    4228.4232   0.94597911 
 2521000   -6.8094266    1.2254259   -5.5840007     1.039958   0.81715488    4224.2216   0.94692001 
 2522000   -6.8175101    1.2036564   -5.6138537    1.1768632   0.80263826    4210.4933   0.95000746 
 2523000   -6.8169392    1.1898754   -5.6270638   0.95384734   0.79344861    4227.8089   0.94611655 
 2524000   -6.8107063    1.1928111   -5.6178952   0.95029647   0.79540627    4229.8251   0.94566558 
 2525000   -6.7911883    1.2093751   -5.5818132    1.0497411    0.8064517    4230.8838   0.94542895 
 2526000   -6.8036256    1.1922495   -5.6113761    1.1793298   0.79503175    4214.2461   0.94916147 
 2527000   -6.8214772    1.1890203   -5.6324569   0.98231389   0.79287843    4224.1889   0.94692735 
 2528000   -6.8314371    1.2084223   -5.6230148   0.92502665   0.80581634    4224.9188   0.94676375 
 2529000    -6.834832    1.1979069   -5.6369252    1.0682345   0.79880428    4210.7653   0.94994607 
 2530000   -6.7930341    1.1908641     -5.60217    1.0504274   0.79410792     4230.521   0.94551003 
 2531000   -6.8003602    1.1864865   -5.6138738    1.0159444   0.79118878    4228.4771   0.94596705 
 2532000   -6.8036837    1.1771207    -5.626563    1.0424557    0.7849434    4226.0909   0.94650116 
 2533000   -6.8241336    1.2079983   -5.6161353     1.066919    0.8055336    4215.1491   0.94895813 
 2534000   -6.8068183    1.2084308   -5.5983875   0.85769506   0.80582198    4240.3493   0.94331852 
 2535000   -6.8364066    1.1912787   -5.6451279   0.80585253   0.79438438    4230.9749   0.94540859 
 2536000   -6.8273811    1.2119139   -5.6154673   0.97070929   0.80814461    4222.0165   0.94741458 
 2537000   -6.7840304    1.2183586   -5.5656718    1.2574134    0.8124422    4217.9948    0.9483179 
 2538000   -6.8339319    1.2036498   -5.6302821   0.98178044   0.80263388    4218.8262   0.94813103 
 2539000    -6.806121    1.2058431    -5.600278   0.84684385   0.80409642    4242.6774   0.94280089 
 2540000   -6.8287389    1.1749972   -5.6537416    1.0094428   0.78352738    4217.4932   0.94843069 
 2541000   -6.7877556    1.2066922   -5.5810634    1.0125416   0.80466264    4237.3148   0.94399405 
 2542000   -6.8330357    1.1529372   -5.6800985   0.88166835   0.76881702    4223.8519   0.94700291 
 2543000   -6.8194982    1.2208615   -5.5986368    0.8194607   0.81411118    4238.3833   0.94375607 
 2544000   -6.8195109    1.1934385   -5.6260724    1.1070545   0.79582462    4214.5577   0.94909129 
 2545000   -6.7790484    1.1997024    -5.579346    1.0945358   0.80000162    4234.7873   0.94455748 
 2546000   -6.8314099    1.1650635   -5.6663464     0.940643   0.77690325    4222.2422   0.94736394 
 2547000   -6.8192803    1.1858127   -5.6334675   0.88631471    0.7907395    4231.7493   0.94523558 
 2548000   -6.8197146    1.1963262   -5.6233883    1.0889037   0.79775024    4216.4744   0.94865986 
 2549000   -6.8119473    1.2067159   -5.6052314   0.92249337   0.80467846    4233.4977   0.94484521 
 2550000   -6.7660302    1.1831358   -5.5828944   0.76307299   0.78895443    4264.4637    0.9379843 
 2551000   -6.8073556    1.2038552   -5.6035004    0.8333628   0.80277086    4241.8615   0.94298223 
 2552000   -6.8309006    1.2192884   -5.6116123    1.0020486   0.81306217     4220.512    0.9477523 
 2553000   -6.7862693    1.2142939   -5.5719754   0.98034106   0.80973171    4240.7221   0.94323558 
 2554000   -6.8252799    1.1795727   -5.6457072   0.88097206   0.78657846    4229.0318   0.94584298 
 2555000   -6.8061379    1.2164931   -5.5896448    0.9129027   0.81119822    4237.0207   0.94405959 
 2556000   -6.8114134    1.2176744   -5.5937389    1.1327537   0.81198593    4217.3595   0.94846076 
 2557000   -6.8131331    1.2025695   -5.6105636   0.95189297   0.80191345    4229.1206   0.94582311 
 2558000   -6.8140605    1.2078949   -5.6061656   0.96246346   0.80546465    4229.6723   0.94569974 
 2559000   -6.7821107    1.2020223   -5.5800884    1.0845963   0.80154859     4232.384   0.94509383 
 2560000   -6.8523921     1.202855   -5.6495371    1.0587978   0.80210385    4204.4633   0.95136994 
 2561000   -6.8229519    1.2108004   -5.6121515    1.0162444   0.80740213    4220.3343   0.94779223 
 2562000   -6.8240899    1.2200536   -5.6040363   0.97045803   0.81357247    4226.1495   0.94648806 
 2563000   -6.8134713    1.2100326   -5.6034387    1.0296165    0.8068901    4224.5295   0.94685101 
 2564000   -6.7931915    1.2115277   -5.5816638   0.95495374   0.80788709    4238.7804   0.94366765 
 2565000   -6.8271367    1.1893525   -5.6377843   0.96843151   0.79309992    4220.7257   0.94770433 
 2566000   -6.7832143    1.1729147   -5.6102996   0.93154935   0.78213864    4241.2548   0.94311712 
 2567000   -6.8125351    1.2011628   -5.6113722   0.97822001   0.80097546       4228.4    0.9459843 
 2568000    -6.840086    1.1862446   -5.6538414    1.0099701   0.79102749    4212.9806   0.94944657 
 2569000   -6.7907028    1.2112439   -5.5794589    0.9266334   0.80769785    4242.9569   0.94273877 
 2570000   -6.8299628    1.2003339   -5.6296289   0.92544941    0.8004227    4224.8121   0.94678768 
 2571000    -6.793005    1.1974486   -5.5955564    0.8443623   0.79849869     4245.248      0.94223 
 2572000   -6.8235656    1.2126412   -5.6109244    1.0167265   0.80862962    4220.8445   0.94767764 
 2573000   -6.8348114    1.2391177   -5.5956937    1.2228561   0.82628504    4201.8954   0.95195135 
 2574000   -6.8027585    1.1829321   -5.6198264    1.1731434   0.78881861    4215.1923    0.9489484 
 2575000   -6.8092122    1.1849561   -5.6242561    0.8673687   0.79016827    4237.0547   0.94405201 
 2576000   -6.7893557    1.1682126   -5.6211431   0.88815445   0.77900315    4242.6434   0.94280844 
 2577000   -6.8247703    1.2109547   -5.6138156    1.0446189   0.80750501    4217.3623   0.94846012 
 2578000   -6.8363774    1.1805827   -5.6557947    1.2378893   0.78725193    4195.8203   0.95332968 
 2579000   -6.7851744     1.194188   -5.5909864    1.0836519   0.79632445    4231.1108   0.94537823 
 2580000   -6.8261759    1.1994252   -5.6267508    1.0368704   0.79981673    4216.8375   0.94857816 
 2581000   -6.8344962    1.2039783    -5.630518   0.87878094    0.8028529    4225.5292   0.94662699 
 2582000   -6.8233573    1.2117538   -5.6116035    1.0313066   0.80803787    4219.9763   0.94787261 
 2583000   -6.8025851    1.2029177   -5.5996674   0.91810549    0.8021457    4236.8784   0.94409129 
 2584000   -6.8390293     1.181394   -5.6576353    0.8645068   0.78779294    4226.2391   0.94646798 
 2585000    -6.812522    1.2353095   -5.5772125    0.9766274   0.82374559    4228.9364   0.94586431 
 2586000   -6.8291747    1.2049624   -5.6242122     1.145364   0.80350916    4208.2282   0.95051879 
 2587000   -6.8097982    1.2019275   -5.6078707   0.97842842   0.80148537    4228.8932   0.94587397 
 2588000   -6.8393585    1.2051105    -5.634248    1.0692034   0.80360792     4211.125   0.94986494 
 2589000   -6.8203465    1.2281882   -5.5921583   0.92805246   0.81899687    4230.5776   0.94549737 
 2590000   -6.8465609    1.1846028   -5.6619581    1.0937142   0.78993269    4203.3041    0.9516323 
 2591000   -6.8007705    1.2017289   -5.5990417    1.0295672   0.80135292    4228.9274   0.94586633 
 2592000    -6.786041    1.2103439    -5.575697   0.94929497   0.80709773    4241.5431   0.94305301 
 2593000    -6.830044    1.2007779   -5.6292661   0.98452349   0.80071876    4222.1237   0.94739053 
 2594000   -6.7754747    1.1931487    -5.582326   0.84519482   0.79563138    4254.2206   0.94024273 
 2595000   -6.8018283     1.216072   -5.5857563   0.88131979   0.81091742    4242.8054   0.94277245 
 2596000   -6.8035155    1.2195637   -5.5839518     1.026032   0.81324579    4230.9132   0.94542238 
 2597000   -6.8328526    1.1914252   -5.6414274    1.1985643   0.79448208    4201.8735   0.95195631 
 2598000   -6.7654436    1.2130246    -5.552419    1.0929141   0.80888532    4239.3632   0.94353794 
 2599000   -6.8432132    1.2146383   -5.6285748   0.93319434   0.80996139    4220.7082   0.94770824 
 2600000   -6.7683639     1.174737   -5.5936269    1.0192082   0.78335383    4242.7818   0.94277768 
Loop time of 646.172 on 2 procs for 100000 steps with 4000 atoms

Performance: 66855.301 tau/day, 154.758 timesteps/s
99.2% CPU use with 2 MPI tasks x no OpenMP threads

MPI task timing breakdown:
Section |  min time  |  avg time  |  max time  |%varavg| %total
---------------------------------------------------------------
Pair    | 549.22     | 550.23     | 551.24     |   4.3 | 85.15
Neigh   | 57.082     | 57.242     | 57.403     |   2.1 |  8.86
Comm    | 21.028     | 22.186     | 23.343     |  24.6 |  3.43
Output  | 0.30556    | 0.30631    | 0.30705    |   0.1 |  0.05
Modify  | 14.503     | 14.509     | 14.515     |   0.2 |  2.25
Other   |            | 1.695      |            |       |  0.26

Nlocal:    2000 ave 2001 max 1999 min
Histogram: 1 0 0 0 0 0 0 0 0 1
Nghost:    6385 ave 6400 max 6370 min
Histogram: 1 0 0 0 0 0 0 0 0 1
Neighs:    214093 ave 214517 max 213669 min
Histogram: 1 0 0 0 0 0 0 0 0 1

Total # of neighbors = 428186
Ave neighs/atom = 107.046
Neighbor list builds = 5000
Dangerous builds not checked
unfix   intnpt
undump  id

#Using Nvt to calculate the rdf and msd
compute   msd all msd average yes
compute   rdfnvt all rdf 100 1 1
fix       rdfnvt all ave/time ${Nevery} ${Nrepeat} ${Nfreq} c_rdfnvt[*] file systemnvt.rdf.${temp} mode vector
fix       rdfnvt all ave/time 1000 ${Nrepeat} ${Nfreq} c_rdfnvt[*] file systemnvt.rdf.${temp} mode vector
fix       rdfnvt all ave/time 1000 100 ${Nfreq} c_rdfnvt[*] file systemnvt.rdf.${temp} mode vector
fix       rdfnvt all ave/time 1000 100 100000 c_rdfnvt[*] file systemnvt.rdf.${temp} mode vector
fix       rdfnvt all ave/time 1000 100 100000 c_rdfnvt[*] file systemnvt.rdf.0.8 mode vector
log       log.lammps.nvt.${temp}
log       log.lammps.nvt.0.8
