thermo		${nthermo}
thermo		1000
thermo_style custom step pe ke etotal press temp vol density
dump		id all atom 1000 out.dump.npt.${temp}.lammpstrj
dump		id all atom 1000 out.dump.npt.1.1.lammpstrj
restart 100000 restartnvt1.data restartnvt2.data

fix 		intnpt all npt temp ${temp} ${temp} ${tdamp} iso ${pext} ${pext} ${pdamp}
fix 		intnpt all npt temp 1.1 ${temp} ${tdamp} iso ${pext} ${pext} ${pdamp}
fix 		intnpt all npt temp 1.1 1.1 ${tdamp} iso ${pext} ${pext} ${pdamp}
fix 		intnpt all npt temp 1.1 1.1 1 iso ${pext} ${pext} ${pdamp}
fix 		intnpt all npt temp 1.1 1.1 1 iso 1 ${pext} ${pdamp}
fix 		intnpt all npt temp 1.1 1.1 1 iso 1 1 ${pdamp}
fix 		intnpt all npt temp 1.1 1.1 1 iso 1 1 10
run		  100000
Neighbor list info ...
  update every 20 steps, delay 0 steps, check no
  max neighbors/atom: 2000, page size: 100000
  master list distance cutoff = 3.8
  ghost atom cutoff = 3.8
  binsize = 1.9, bins = 10 10 10
  1 neighbor lists, perpetual/occasional/extra = 1 0 0
  (1) pair lj/cut, perpetual
      attributes: half, newton on
      pair build: half/bin/atomonly/newton
      stencil: half/bin/3d/newton
      bin: standard
Per MPI rank memory allocation (min/avg/max) = 4.367 | 4.367 | 4.367 Mbytes
Step PotEng KinEng TotEng Press Temp Volume Density 
 4000000   -5.2825743    1.4699435   -3.8126307    1.1124242   0.98020741    5086.2218   0.78643838 
 4001000   -5.0554453    1.6376068   -3.4178385   0.92565911    1.0920109    5304.4656   0.75408162 
 4002000   -4.9530577    1.6408077     -3.31225   0.90792337    1.0941454    5388.6115   0.74230625 
 4003000   -4.9947699    1.6125713   -3.3821986    1.0495922    1.0753164    5324.6489   0.75122325 
 4004000   -4.9576146    1.5960109   -3.3616037   0.92421916    1.0642733    5383.7811   0.74297225 
 4005000   -4.9674188    1.6190147    -3.348404    1.0943194    1.0796131    5341.7289   0.74882122 
 4006000   -4.9804113    1.6535201   -3.3268912   0.97218912    1.1026224    5356.5796   0.74674518 
 4007000   -4.9711573     1.637643   -3.3335143    1.0544482     1.092035    5336.8599   0.74950441 
 4008000   -4.9966181    1.6769209   -3.3196971     1.111311    1.1182268    5317.7942   0.75219157 
 4009000   -5.0017103    1.6779185   -3.3237918    1.0107173    1.1188921    5338.3845   0.74929035 
 4010000     -4.99788    1.6801243   -3.3177557    1.0627074     1.120363    5321.0041   0.75173782 
 4011000   -4.9757115    1.6513192   -3.3243923    1.0459069    1.1011548    5349.0264   0.74779963 
 4012000   -4.9465739    1.6329602   -3.3136137   0.97517303    1.0889124    5382.6365   0.74313026 
 4013000   -4.9906644    1.6351071   -3.3555573    1.0779947     1.090344    5336.5227   0.74955177 
 4014000   -5.0032291    1.6552223   -3.3480068    1.0217457    1.1037575    5324.5861    0.7512321 
 4015000   -4.9426542    1.6623186   -3.2803357    1.0706868    1.1084895    5377.8833   0.74378705 
 4016000   -5.0400825    1.6538996   -3.3861829    1.0017145    1.1028755     5313.402   0.75281336 
 4017000   -4.9750538    1.6583623   -3.3166915   0.97260974    1.1058513    5363.6697   0.74575808 
 4018000   -4.9440534    1.6799584   -3.2640949     1.010711    1.1202524    5379.5999   0.74354972 
 4019000   -5.0027157    1.6108657     -3.39185   0.96941783     1.074179    5332.6758   0.75009248 
 4020000   -5.0069205    1.6469954   -3.3599251   0.88950939    1.0982715    5359.3658   0.74635696 
 4021000    -4.976557    1.6427256   -3.3338315    1.0333887    1.0954242    5351.0671   0.74751445 
 4022000   -4.9934141    1.6867797   -3.3066343   0.94210183     1.124801    5358.3416   0.74649963 
 4023000   -5.0252654    1.6551522   -3.3701132   0.96840376    1.1037107    5314.9691   0.75259139 
 4024000   -5.0052542     1.652459   -3.3527951    0.9357134    1.1019148    5349.0689    0.7477937 
 4025000   -4.9324463    1.6715994   -3.2608469   0.96599619    1.1146783    5397.6599   0.74106188 
 4026000   -5.0270505    1.6321601   -3.3948904    1.0735067    1.0883788    5305.6007   0.75392029 
 4027000   -4.9837066     1.654317   -3.3293896   0.90484328    1.1031538    5363.5915   0.74576895 
 4028000   -4.9713638    1.6506002   -3.3207636    1.0229654    1.1006753    5354.9189   0.74697676 
 4029000     -4.94819     1.651758    -3.296432   0.98177455    1.1014474    5388.8376   0.74227511 
 4030000   -5.0045792    1.6705581   -3.3340211    1.0126151    1.1139839    5332.5174   0.75011476 
 4031000    -4.981207    1.6585553   -3.3226517    1.1314531      1.10598    5326.4192   0.75097356 
 4032000   -4.9319354    1.6476361   -3.2842992   0.92610623    1.0986988     5403.916   0.74020395 
 4033000   -5.0460787    1.6539713   -3.3921074    1.1128761    1.1029233    5280.5056   0.75750322 
 4034000   -4.9851094    1.6564945   -3.3286149   0.90118701    1.1046058    5372.7193   0.74450196 
 4035000   -4.9878918    1.6456596   -3.3422322    1.0508605    1.0973807    5335.8295   0.74964914 
 4036000   -4.9968502    1.6425785   -3.3542718    1.0947545    1.0953261    5319.0678   0.75201147 
 4037000   -4.9536011    1.6592723   -3.2943289   0.89238699    1.1064581    5401.8722   0.74048401 
 4038000   -4.9950713    1.6781498   -3.3169215   0.94090942    1.1190463    5350.0055   0.74766278 
 4039000   -4.9947381    1.6354186   -3.3593196   0.97917633    1.0905517    5345.2869   0.74832279 
 4040000   -5.0233006    1.6490595   -3.3742411   0.89807645    1.0996479    5336.9121   0.74949707 
 4041000   -4.9798321    1.6194185   -3.3604137   0.99971567    1.0798823    5360.5895   0.74618659 
 4042000   -4.9977527    1.6404133   -3.3573394   0.98627838    1.0938823    5335.8479   0.74964656 
 4043000   -5.0094277    1.6479447    -3.361483   0.77305495    1.0989045    5369.1547   0.74499623 
 4044000   -4.9984649    1.6507233   -3.3477417   0.87212383    1.1007574    5357.3376   0.74663952 
 4045000   -4.9812852    1.6426373   -3.3386479    1.0042591    1.0953654    5351.2738   0.74748557 
 4046000   -5.0154954    1.6526486   -3.3628469    1.0179601    1.1020412    5318.7784   0.75205239 
 4047000   -4.9250669    1.6396687   -3.2853982   0.76319193    1.0933858    5437.7299   0.73560108 
 4048000   -4.9950877    1.6420235   -3.3530642   0.99183682    1.0949561      5347.01   0.74808164 
 4049000   -4.9992213    1.6171917   -3.3820296   0.90426117    1.0783974    5359.3511   0.74635902 
 4050000   -5.0207168    1.6055367     -3.41518    0.9430135    1.0706255    5327.7078   0.75079193 
 4051000   -4.9863823    1.6483835   -3.3379987   0.88050581    1.0991972    5367.5782   0.74521504 
 4052000   -4.9684801    1.6362462   -3.3322339     1.090629    1.0911036    5346.0461   0.74821651 
 4053000   -5.0369848    1.6701408   -3.3668439    1.0913518    1.1137057    5296.0044   0.75528638 
 4054000   -5.0107322    1.6693666   -3.3413656    1.0474668    1.1131894    5318.2612   0.75212553 
 4055000   -4.9834633      1.65903   -3.3244332    1.1074282    1.1062966    5338.5547   0.74926646 
 4056000   -4.9816333    1.6351396   -3.3464937    1.0041521    1.0903656    5341.3302   0.74887712 
 4057000   -4.9552222    1.6615239   -3.2936984    1.0069199    1.1079596    5370.0757   0.74486846 
 4058000   -5.0128833    1.6481116   -3.3647717    1.0014537    1.0990158    5324.8445   0.75119565 
 4059000   -4.9860234    1.6473479   -3.3386754   0.93294864    1.0985066    5363.6411   0.74576205 
 4060000   -5.0120433    1.6530994   -3.3589439   0.98128613    1.1023418    5329.7908    0.7504985 
 4061000   -4.9752949    1.6584515   -3.3168434    1.0131459    1.1059108    5356.2987   0.74678435 
 4062000   -4.9745324     1.654285   -3.3202474   0.95734637    1.1031324    5357.0172   0.74668418 
 4063000   -5.0085921    1.6251639   -3.3834282   0.90612558    1.0837135    5342.1346   0.74876436 
 4064000    -4.982986    1.6288614   -3.3541246    0.8917785    1.0861792    5369.0195   0.74501498 
 4065000    -5.016214    1.6321534   -3.3840606    1.0253459    1.0883744    5316.9535   0.75231051 
 4066000    -4.982183    1.6706991    -3.311484    1.0675511    1.1140779    5341.2324   0.74889084 
 4067000   -4.9829395    1.6830719   -3.2998675   0.99113127    1.1223285     5350.945   0.74753152 
 4068000   -4.9811561    1.6909897   -3.2901664    1.0185792    1.1276083     5351.708   0.74742493 
 4069000   -4.9947758    1.6467293   -3.3480465    1.0076047    1.0980941    5338.8637    0.7492231 
 4070000   -4.9579786    1.6556421   -3.3023364   0.95897226    1.1040374    5374.2158   0.74429464 
 4071000     -4.97532    1.6526091   -3.3227109    1.1092392    1.1020149    5341.0483   0.74891665 
 4072000   -4.9897601    1.6467368   -3.3430233    1.0528746    1.0980991    5343.8706   0.74852112 
 4073000   -5.0142176    1.6481009   -3.3661167   0.83238368    1.0990087    5350.1297   0.74764543 
 4074000   -5.0021906    1.6239018   -3.3782888    1.0476091    1.0828719    5322.9608   0.75146149 
 4075000    -4.986287    1.6620768   -3.3242102    1.0616247    1.1083283    5338.1166   0.74932795 
 4076000   -4.9737223    1.6971704   -3.2765518    1.0527481    1.1317299     5356.328   0.74678026 
 4077000   -4.9953394    1.6928157   -3.3025236    0.9482001     1.128826    5353.8353   0.74712796 
 4078000   -4.9947677    1.6742823   -3.3204854    1.0931444    1.1164673    5328.6714   0.75065616 
 4079000   -5.0015866    1.6393569   -3.3622297    1.0078805    1.0931779    5337.4046   0.74942791 
 4080000   -5.0201044    1.6451678   -3.3749366   0.97683752    1.0970528    5324.9322   0.75118328 
 4081000   -4.9988053     1.647053   -3.3517522   0.87377964    1.0983099    5359.1577   0.74638595 
 4082000   -4.9704938    1.6426429   -3.3278508   0.96106555    1.0953691    5366.4214   0.74537569 
 4083000   -5.0124123    1.6275272   -3.3848851    1.1120386    1.0852895    5314.1795   0.75270322 
 4084000   -4.9871138    1.6255591   -3.3615548   0.78101075    1.0839771    5386.5016   0.74259702 
 4085000   -5.0055438    1.6332113   -3.3723325    1.0793344    1.0890798    5318.9841   0.75202331 
 4086000   -4.9496543    1.6556157   -3.2940385   0.85811528    1.1040198    5405.4595    0.7399926 
 4087000   -5.0013271     1.682643   -3.3186841   0.99989997    1.1220425      5338.91   0.74921661 
 4088000   -5.0079304    1.6530923   -3.3548381    0.9799423    1.1023371    5337.8112   0.74937083 
 4089000   -4.9644179    1.6843964   -3.2800215   0.89300858    1.1232117    5388.8314   0.74227596 
 4090000   -4.9668749     1.650285   -3.3165899    1.1061442    1.1004651    5348.8572   0.74782329 
 4091000   -5.0097414    1.7051635   -3.3045779    1.1376478    1.1370599    5313.1413   0.75285029 
 4092000   -4.9716059    1.6445636   -3.3270423    1.1478682    1.0966499    5331.3159    0.7502838 
 4093000   -5.0209521    1.6652239   -3.3557282   0.99742183    1.1104269    5328.4301   0.75069016 
 4094000   -4.9599848    1.6198242   -3.3401606   0.85798679    1.0801529    5392.7665   0.74173432 
 4095000   -5.0078956    1.6394733   -3.3684223     1.004349    1.0932555    5333.9282   0.74991636 
 4096000   -4.9824389    1.6531621   -3.3292768   0.91665567    1.1023837    5368.6667   0.74506394 
 4097000   -5.0179913    1.6378997   -3.3800916   0.92757922    1.0922062    5331.3664   0.75027671 
 4098000   -4.9627811    1.5840117   -3.3787694   0.87702116    1.0562719    5380.8758   0.74337341 
 4099000   -4.9994887    1.6318882   -3.3676006     0.957409    1.0881975    5342.2031   0.74875476 
 4100000    -4.967339    1.6399133   -3.3274257   0.91381781    1.0935489    5380.7933   0.74338481 
Loop time of 403.47 on 2 procs for 100000 steps with 4000 atoms

Performance: 107071.180 tau/day, 247.850 timesteps/s
98.9% CPU use with 2 MPI tasks x no OpenMP threads

MPI task timing breakdown:
Section |  min time  |  avg time  |  max time  |%varavg| %total
---------------------------------------------------------------
Pair    | 322.71     | 329.65     | 336.6      |  38.3 | 81.70
Neigh   | 34.436     | 34.58      | 34.723     |   2.4 |  8.57
Comm    | 19.555     | 26.662     | 33.769     | 137.6 |  6.61
Output  | 0.23845    | 0.23912    | 0.23979    |   0.1 |  0.06
Modify  | 11.189     | 11.206     | 11.223     |   0.5 |  2.78
Other   |            | 1.129      |            |       |  0.28

Nlocal:    2000 ave 2008 max 1992 min
Histogram: 1 0 0 0 0 0 0 0 0 1
Nghost:    5680.5 ave 5692 max 5669 min
Histogram: 1 0 0 0 0 0 0 0 0 1
Neighs:    169578 ave 173733 max 165423 min
Histogram: 1 0 0 0 0 0 0 0 0 1

Total # of neighbors = 339156
Ave neighs/atom = 84.789
Neighbor list builds = 5000
Dangerous builds not checked
unfix   intnpt
undump  id

#Using Nvt to calculate the rdf and msd
compute   msd all msd average yes
compute   rdfnvt all rdf 100 1 1
fix       rdfnvt all ave/time ${Nevery} ${Nrepeat} ${Nfreq} c_rdfnvt[*] file systemnvt.rdf.${temp} mode vector
fix       rdfnvt all ave/time 1000 ${Nrepeat} ${Nfreq} c_rdfnvt[*] file systemnvt.rdf.${temp} mode vector
fix       rdfnvt all ave/time 1000 100 ${Nfreq} c_rdfnvt[*] file systemnvt.rdf.${temp} mode vector
fix       rdfnvt all ave/time 1000 100 100000 c_rdfnvt[*] file systemnvt.rdf.${temp} mode vector
fix       rdfnvt all ave/time 1000 100 100000 c_rdfnvt[*] file systemnvt.rdf.1.1 mode vector
log       log.lammps.nvt.${temp}
log       log.lammps.nvt.1.1
