thermo    ${nthermo}
thermo    1000
thermo_style custom step pe ke etotal press temp vol c_msd[4]
dump      idnvt all atom 1000 out.dump.nvt.${temp}.lammpstrj
dump      idnvt all atom 1000 out.dump.nvt.0.8.lammpstrj
restart   100000 restartnpt1.data restartnp2.data

fix       intnvt all nvt temp ${temp} ${temp} ${tdamp}
fix       intnvt all nvt temp 0.8 ${temp} ${tdamp}
fix       intnvt all nvt temp 0.8 0.8 ${tdamp}
fix       intnvt all nvt temp 0.8 0.8 1
run       400000
Neighbor list info ...
  update every 20 steps, delay 0 steps, check no
  max neighbors/atom: 2000, page size: 100000
  master list distance cutoff = 3.8
  ghost atom cutoff = 3.8
  binsize = 1.9, bins = 9 9 9
  2 neighbor lists, perpetual/occasional/extra = 1 1 0
  (1) pair lj/cut, perpetual
      attributes: half, newton on
      pair build: half/bin/atomonly/newton
      stencil: half/bin/3d/newton
      bin: standard
  (2) compute rdf, occasional, copy from (1)
      attributes: half, newton on
      pair build: copy
      stencil: none
      bin: none
Per MPI rank memory allocation (min/avg/max) = 5.125 | 5.125 | 5.125 Mbytes
Step PotEng KinEng TotEng Press Temp Volume c_msd[4] 
 2600000   -6.7683639     1.174737   -5.5936269    1.0192082   0.78335383    4242.7818            0 
 2601000    -6.794424    1.1954182   -5.5990057   0.89073332   0.79714476    4242.7818  0.027610553 
 2602000   -6.7952942    1.2168448   -5.5784494   0.90157378   0.81143272    4242.7818  0.027714403 
 2603000   -6.7785811    1.1914594   -5.5871217    0.9752693   0.79450488    4242.7818  0.027536362 
 2604000   -6.7833586     1.208739   -5.5746196   0.93515504   0.80602749    4242.7818  0.027034829 
 2605000   -6.7892521    1.2248215   -5.5644306   0.96198059   0.81675184    4242.7818  0.032207769 
 2606000   -6.7889855     1.200995   -5.5879905   0.92549874   0.80086353    4242.7818  0.036194691 
 2607000   -6.7920679    1.1748574   -5.6172105    0.8865624   0.78343414    4242.7818  0.036124051 
 2608000   -6.8148986    1.2053536    -5.609545   0.79110044      0.80377    4242.7818  0.039392907 
 2609000   -6.7795337    1.2213349   -5.5581989   0.98759962   0.81442685    4242.7818  0.041628904 
 2610000   -6.7887227    1.2051031   -5.5836196   0.91626459   0.80360297    4242.7818  0.039493684 
 2611000   -6.7931833    1.2037746   -5.5894087   0.90186979   0.80271705    4242.7818  0.040857976 
 2612000   -6.7888457    1.1876236    -5.601222   0.90542272   0.79194708    4242.7818    0.0430837 
 2613000   -6.7937226    1.1757479   -5.6179748   0.90742407   0.78402791    4242.7818  0.050877769 
 2614000   -6.8071868     1.171409   -5.6357777   0.80545134   0.78113465    4242.7818   0.05642207 
 2615000   -6.7947279    1.1985922   -5.5961357   0.88715736   0.79926129    4242.7818  0.060030908 
 2616000   -6.7860931    1.2033515   -5.5827415   0.93319118   0.80243497    4242.7818  0.053525021 
 2617000   -6.7841094    1.2147229   -5.5693865   0.94989475   0.81001776    4242.7818  0.053935579 
 2618000   -6.7850445    1.2156144   -5.5694301   0.95812124   0.81061224    4242.7818  0.048553686 
 2619000   -6.7866707    1.1788743   -5.6077964   0.91482095   0.78611273    4242.7818  0.049409655 
 2620000   -6.8071113    1.2078406   -5.5992707   0.81324976   0.80542841    4242.7818  0.049690207 
 2621000   -6.7969092    1.2207237   -5.5761855   0.88826589   0.81401932    4242.7818  0.054948951 
 2622000   -6.7612772    1.1913643   -5.5699129    1.0582965   0.79444147    4242.7818  0.057455228 
 2623000   -6.8144454    1.2103517   -5.6040938   0.80468814    0.8071029    4242.7818  0.060811487 
 2624000   -6.7998244    1.1782087   -5.6216157   0.83780418   0.78566889    4242.7818  0.059296276 
 2625000   -6.7818618    1.1780104   -5.6038514   0.96206697   0.78553662    4242.7818  0.065979616 
 2626000   -6.7848061    1.1957178   -5.5890883   0.95474193   0.79734455    4242.7818   0.06577632 
 2627000   -6.7721429     1.188847   -5.5832958    1.0061622   0.79276287    4242.7818  0.066793697 
 2628000   -6.7845659     1.188791    -5.595775   0.95133781   0.79272551    4242.7818  0.066755492 
 2629000   -6.7937618     1.201177   -5.5925848   0.89183704   0.80098492    4242.7818  0.061604122 
 2630000   -6.7717027    1.2091587    -5.562544    1.0177499   0.80630737    4242.7818  0.068001936 
 2631000   -6.7580424    1.2018342   -5.5562082    1.0797939   0.80142317    4242.7818  0.061849089 
 2632000   -6.7659734    1.2009985   -5.5649749    1.0396523   0.80086587    4242.7818  0.063249606 
 2633000   -6.8018313    1.2087962   -5.5930351   0.86740408   0.80606566    4242.7818  0.067708622 
 2634000   -6.7985608    1.1828363   -5.6157245   0.87484054   0.78875472    4242.7818  0.075772626 
 2635000   -6.8048852    1.1975184   -5.6073669   0.86070641   0.79854521    4242.7818  0.077337051 
 2636000    -6.800798    1.2187226   -5.5820754   0.87482884    0.8126849    4242.7818  0.076837882 
 2637000   -6.7628097    1.1856046   -5.5772051    1.0547523   0.79060069    4242.7818  0.081440346 
 2638000   -6.7810611    1.2220729   -5.5589882   0.97338802     0.814919    4242.7818  0.083233653 
 2639000   -6.7768194    1.1879636   -5.5888558    0.9921309   0.79217377    4242.7818  0.072559897 
 2640000   -6.7648082    1.1935759   -5.5712323    1.0715325   0.79591625    4242.7818  0.081047049 
 2641000   -6.7808655     1.219848   -5.5610175   0.98026214   0.81343534    4242.7818  0.079633547 
 2642000   -6.7572997    1.2256274   -5.5316723    1.1089289   0.81728925    4242.7818  0.081756216 
 2643000   -6.7876823    1.2006597   -5.5870226   0.93258046   0.80063997    4242.7818  0.087258341 
 2644000   -6.7934609    1.1986442   -5.5948167   0.90203621   0.79929596    4242.7818  0.084557632 
 2645000   -6.7979944     1.193081   -5.6049134   0.87230863   0.79558625    4242.7818  0.088770779 
 2646000   -6.7982548    1.1855461   -5.6127086   0.86742707   0.79056172    4242.7818  0.082654313 
 2647000   -6.7944832     1.186109   -5.6083742   0.88530713    0.7909371    4242.7818  0.086246447 
 2648000   -6.7792991    1.2099178   -5.5693813    0.9945134   0.80681359    4242.7818  0.089402182 
 2649000   -6.7576134    1.1883237   -5.5692897    1.1001529   0.79241392    4242.7818  0.093902098 
 2650000   -6.7895314    1.1949539   -5.5945776   0.92557701   0.79683511    4242.7818  0.096794657 
 2651000   -6.7837868    1.1812746   -5.6025121   0.92412462   0.78771335    4242.7818   0.10441303 
 2652000   -6.7677049    1.1736948     -5.59401    1.0145141   0.78265889    4242.7818    0.1135484 
 2653000   -6.7790733     1.198414   -5.5806593   0.97458146   0.79914245    4242.7818   0.11068287 
 2654000   -6.7731708     1.190074   -5.5830968   0.99604686   0.79358107    4242.7818   0.11284818 
 2655000   -6.7621232    1.1926572    -5.569466    1.0671908   0.79530362    4242.7818   0.11626386 
 2656000   -6.7939179     1.192695   -5.6012229   0.88484834    0.7953288    4242.7818   0.11542317 
 2657000   -6.7969452    1.1790903   -5.6178549   0.85092869   0.78625677    4242.7818   0.11336701 
 2658000   -6.7646084    1.2151331   -5.5494753    1.0639426    0.8102913    4242.7818    0.1206663 
 2659000   -6.7571802    1.1993406   -5.5578396    1.1029677   0.79976034    4242.7818    0.1271219 
 2660000   -6.7854749    1.1866693   -5.5988056   0.93405731   0.79131069    4242.7818   0.12700554 
 2661000   -6.7774485    1.1754944   -5.6019541   0.96599012    0.7838589    4242.7818   0.13226023 
 2662000   -6.7621086    1.2174199   -5.5446887    1.0688569   0.81181622    4242.7818   0.13049163 
 2663000   -6.7741148    1.2145443   -5.5595705    1.0115108   0.80989868    4242.7818   0.13272819 
 2664000   -6.7835275    1.2034097   -5.5801178   0.94852493   0.80247375    4242.7818   0.13494224 
 2665000   -6.7838954    1.1768513    -5.607044     0.939762   0.78476374    4242.7818   0.13439449 
 2666000   -6.7831798    1.1970593   -5.5861206   0.93276361   0.79823908    4242.7818   0.13687354 
 2667000   -6.7952195    1.2166716   -5.5785479   0.89003918   0.81131724    4242.7818   0.13414783 
 2668000   -6.7862976    1.2005048   -5.5857928   0.94278791   0.80053668    4242.7818    0.1301691 
 2669000   -6.7961755    1.2043511   -5.5918244   0.87923231   0.80310151    4242.7818   0.13039166 
 2670000   -6.7895087    1.1979075   -5.5916012   0.92803777   0.79880469    4242.7818   0.13296942 
 2671000   -6.8059112    1.1953274   -5.6105838   0.82259583   0.79708419    4242.7818   0.12919523 
 2672000   -6.7912725    1.1798799   -5.6113926   0.88997811    0.7867833    4242.7818   0.13123301 
 2673000   -6.7946188    1.1759855   -5.6186333   0.86539058   0.78418638    4242.7818   0.12781312 
 2674000   -6.8009611    1.2187726   -5.5821885   0.84878221   0.81271822    4242.7818   0.12672364 
 2675000   -6.7750499    1.2001398   -5.5749101   0.98283105   0.80029324    4242.7818   0.12504355 
 2676000   -6.7759699    1.2214485   -5.5545214    1.0166924   0.81450263    4242.7818   0.11990704 
 2677000   -6.7754837    1.2235596   -5.5519241    1.0055421    0.8159104    4242.7818   0.12525299 
 2678000   -6.7895182    1.1949674   -5.5945508   0.90709444   0.79684413    4242.7818   0.11835806 
 2679000   -6.7795588    1.1792758    -5.600283   0.94791158   0.78638047    4242.7818   0.12261202 
 2680000   -6.7712668    1.1864679   -5.5847989   0.99361305   0.79117637    4242.7818   0.13048578 
 2681000   -6.7904531     1.216778   -5.5736751   0.90574273   0.81138817    4242.7818    0.1268305 
 2682000   -6.7867774    1.2245187   -5.5622587   0.94411118   0.81654994    4242.7818   0.12491829 
 2683000   -6.7774275    1.2306916   -5.5467359   0.98697397   0.82066623    4242.7818   0.12378135 
 2684000   -6.7716471    1.1993754   -5.5722717    1.0106094   0.79978353    4242.7818   0.13080785 
 2685000   -6.7886137    1.1912372   -5.5973765    0.9183647   0.79435672    4242.7818   0.13424664 
 2686000   -6.7952727    1.1952228   -5.6000499   0.89126258   0.79701446    4242.7818   0.13580925 
 2687000   -6.7816535    1.1917946   -5.5898589   0.95365653   0.79472842    4242.7818   0.12763061 
 2688000   -6.8083865    1.2344667   -5.5739198   0.85110608   0.82318356    4242.7818   0.12759311 
 2689000   -6.7956325    1.1916999   -5.6039326     0.879413   0.79466528    4242.7818   0.12686052 
 2690000   -6.7940802    1.1938075   -5.6002727   0.88541844   0.79607066    4242.7818   0.13162552 
 2691000   -6.7886616     1.211014   -5.5776476   0.91732071   0.80754454    4242.7818   0.13376565 
 2692000   -6.7704049    1.2249663   -5.5454386    1.0457772   0.81684841    4242.7818   0.13703247 
 2693000   -6.7655751     1.207631   -5.5579441    1.0586435   0.80528865    4242.7818   0.14432065 
 2694000   -6.7943969    1.2239637   -5.5704332    0.9005957   0.81617982    4242.7818   0.14165213 
 2695000   -6.7947635    1.2141721   -5.5805915   0.90349652   0.80965045    4242.7818   0.14297909 
 2696000   -6.7864124    1.1813735   -5.6050389   0.92460195   0.78777929    4242.7818   0.13734147 
 2697000   -6.7675099    1.1984123   -5.5690976    1.0291335   0.79914133    4242.7818   0.14067238 
 2698000   -6.7489372     1.194082   -5.5548552    1.1113539   0.79625371    4242.7818   0.15024006 
 2699000   -6.7645338    1.1878747   -5.5766591     1.039208   0.79211451    4242.7818   0.14984312 
 2700000   -6.7851314    1.1838581   -5.6012733   0.91287148   0.78943607    4242.7818   0.14654712 
 2701000   -6.7907903    1.1948384    -5.595952   0.89977875   0.79675811    4242.7818   0.15363286 
 2702000   -6.7900757    1.2019313   -5.5881444   0.90899366   0.80148791    4242.7818    0.1588958 
 2703000   -6.7899159    1.2023573   -5.5875586   0.92387156   0.80177197    4242.7818   0.15943376 
 2704000   -6.7929793    1.2247314   -5.5682479    0.9072818   0.81669181    4242.7818   0.16223513 
 2705000   -6.7805713     1.192449   -5.5881223   0.95854741   0.79516482    4242.7818   0.16786384 
 2706000   -6.8063745    1.2005539   -5.6058206     0.846197   0.80056939    4242.7818   0.15791061 
 2707000    -6.801225    1.1528833   -5.6483417   0.82513583   0.76878105    4242.7818   0.15948155 
 2708000   -6.7999554    1.2059805   -5.5939748   0.86517659   0.80418808    4242.7818   0.15590615 
 2709000   -6.7939339     1.208245   -5.5856889   0.90284439   0.80569808    4242.7818   0.15415414 
 2710000   -6.7844075    1.1984484    -5.585959   0.93654933   0.79916541    4242.7818   0.14215413 
 2711000   -6.7992557    1.1892689   -5.6099867   0.84771351   0.79304422    4242.7818   0.14175797 
 2712000   -6.8154504    1.1833716   -5.6320788   0.77141482   0.78911166    4242.7818   0.13692701 
 2713000   -6.7898503    1.1892067   -5.6006436   0.90673716   0.79300272    4242.7818   0.14244336 
 2714000    -6.800279    1.2093535   -5.5909254   0.85696783   0.80643731    4242.7818   0.13485491 
 2715000   -6.7987396    1.2147268   -5.5840128   0.87291561   0.81002037    4242.7818   0.14643855 
 2716000   -6.7526531    1.1978989   -5.5547542    1.1065549   0.79879896    4242.7818    0.1498544 
 2717000   -6.7835186    1.1858502   -5.5976684   0.94512705   0.79076447    4242.7818   0.15354739 
 2718000   -6.8071253    1.1927216   -5.6144037   0.81325751   0.79534657    4242.7818    0.1647086 
 2719000   -6.7999239    1.2104661   -5.5894578   0.87458334   0.80717917    4242.7818    0.1680239 
 2720000   -6.7988846    1.2175213   -5.5813634   0.86888275   0.81188381    4242.7818   0.15874998 
 2721000   -6.7823335    1.1934155    -5.588918   0.95235306   0.79580926    4242.7818     0.158822 
 2722000   -6.7893025    1.1904883   -5.5988141    0.8958199   0.79385735    4242.7818   0.15787352 
 2723000   -6.8036634     1.205779   -5.5978844   0.83752464    0.8040537    4242.7818   0.15331737 
 2724000   -6.7814351    1.2113823   -5.5700528   0.96185614   0.80779015    4242.7818    0.1567706 
 2725000   -6.7868008    1.2101491   -5.5766517   0.93839313   0.80696778    4242.7818   0.15331012 
 2726000   -6.8033177    1.1950058   -5.6083119    0.8366932   0.79686975    4242.7818   0.15124261 
 2727000   -6.8001478    1.2021523   -5.5979955   0.88310605   0.80163527    4242.7818   0.15872127 
 2728000   -6.7974014    1.2264741   -5.5709273   0.89113251   0.81785386    4242.7818   0.16447563 
 2729000   -6.7848172     1.205631   -5.5791862    0.9548801   0.80395498    4242.7818   0.15800904 
 2730000   -6.8018502    1.2178343   -5.5840159   0.87298515   0.81209254    4242.7818   0.15967864 
 2731000   -6.7932023    1.1977705   -5.5954318   0.90905279   0.79871336    4242.7818   0.16476347 
 2732000   -6.7992268    1.1861727   -5.6130541    0.8701557   0.79097953    4242.7818   0.15972936 
 2733000   -6.7856239    1.1944803   -5.5911436   0.95144981    0.7965193    4242.7818   0.16619618 
 2734000   -6.7765099    1.2098266   -5.5666832    1.0174604   0.80675276    4242.7818   0.17353849 
 2735000   -6.7798025    1.2314064   -5.5483961    1.0102356   0.82114288    4242.7818   0.18716308 
 2736000   -6.7772066    1.2165537   -5.5606529   0.99808994    0.8112386    4242.7818   0.19001713 
 2737000    -6.772999    1.1822886   -5.5907104   0.99343383   0.78838947    4242.7818   0.19525591 
 2738000   -6.7857307    1.2038791   -5.5818516   0.95784992   0.80278674    4242.7818   0.19981138 
 2739000    -6.761325    1.1912822   -5.5700428    1.0682288   0.79438676    4242.7818   0.19750159 
 2740000   -6.7744473    1.2258313   -5.5486161    1.0038755    0.8174252    4242.7818   0.20098244 
 2741000    -6.759642    1.2114282   -5.5482138    1.0743381   0.80782073    4242.7818   0.21031401 
 2742000   -6.7824479    1.2028356   -5.5796122   0.95934076   0.80209095    4242.7818   0.20671381 
 2743000     -6.79722    1.1971014   -5.6001186   0.89211376   0.79826717    4242.7818   0.21543934 
 2744000   -6.7845787    1.2063853   -5.5781934   0.95569678   0.80445798    4242.7818   0.22190652 
 2745000   -6.7684049    1.2154814   -5.5529235    1.0288081   0.81052357    4242.7818   0.22534627 
 2746000   -6.7759115    1.2120777   -5.5638338    1.0067632   0.80825387    4242.7818   0.23049554 
 2747000   -6.7736409     1.199945   -5.5736958    1.0225358   0.80016341    4242.7818   0.21856291 
 2748000   -6.8020776     1.204518   -5.5975596   0.86546703   0.80321283    4242.7818   0.22421288 
 2749000   -6.7960826    1.1858603   -5.6102223   0.88248848   0.79077121    4242.7818   0.22866412 
 2750000    -6.766665    1.1775766   -5.5890884    1.0177805   0.78524739    4242.7818   0.22370842 
 2751000   -6.7649221    1.2040365   -5.5608857    1.0600033   0.80289172    4242.7818   0.22060996 
 2752000   -6.7889722     1.212772   -5.5762002   0.93962886   0.80871686    4242.7818   0.21664959 
 2753000   -6.7716127    1.2238188   -5.5477939    1.0432006   0.81608322    4242.7818   0.22808989 
 2754000   -6.7785514    1.2017475   -5.5768039   0.99283646   0.80136532    4242.7818   0.22110522 
 2755000   -6.8035579     1.205309   -5.5982489   0.84333125   0.80374024    4242.7818   0.22249912 
 2756000    -6.800835    1.2236776   -5.5771574   0.88355197   0.81598903    4242.7818   0.22270256 
 2757000   -6.7877062    1.2132659   -5.5744404   0.93386052   0.80904618    4242.7818    0.2249512 
 2758000   -6.8032196    1.2075558   -5.5956639   0.86127411   0.80523848    4242.7818   0.22562737 
 2759000    -6.780856    1.1853486   -5.5955073   0.95414887   0.79043003    4242.7818   0.22805021 
 2760000     -6.79162    1.1932577   -5.5983623   0.89893196   0.79570409    4242.7818   0.22979608 
 2761000   -6.7833147    1.1981615   -5.5851532   0.97247279   0.79897407    4242.7818   0.23361978 
 2762000   -6.7639121    1.1924392   -5.5714729    1.0546287   0.79515824    4242.7818   0.23339915 
 2763000   -6.7771083    1.2265508   -5.5505575    1.0129536   0.81790501    4242.7818   0.24152893 
 2764000   -6.7746397    1.2034155   -5.5712241     1.001403   0.80247763    4242.7818   0.23911905 
 2765000   -6.7892138    1.1858305   -5.6033833    0.9220157   0.79075138    4242.7818   0.25065656 
 2766000   -6.7787226    1.1796687   -5.5990539   0.97335677   0.78664247    4242.7818   0.24390703 
 2767000   -6.7623007    1.2084183   -5.5538824     1.068343   0.80581365    4242.7818   0.24014433 
 2768000   -6.7774185    1.2262583   -5.5511602    0.9994363   0.81770995    4242.7818    0.2402387 
 2769000   -6.7842683    1.2160307   -5.5682376   0.95967817   0.81088986    4242.7818   0.23928181 
 2770000   -6.7847911    1.2091161    -5.575675   0.94747827   0.80627894    4242.7818     0.237956 
 2771000   -6.7914932    1.1797174   -5.6117758   0.90592153   0.78667496    4242.7818   0.24016195 
 2772000   -6.8016849    1.1787745   -5.6229104   0.84004893   0.78604619    4242.7818   0.24403173 
 2773000   -6.7894228    1.2025184   -5.5869044   0.92394746   0.80187942    4242.7818   0.24254805 
 2774000   -6.7897545    1.2006141   -5.5891404   0.90891155   0.80060954    4242.7818   0.24364452 
 2775000   -6.7988347     1.191766   -5.6070687   0.86668544   0.79470937    4242.7818   0.24825156 
 2776000   -6.8123645     1.183915   -5.6284495   0.77852764   0.78947403    4242.7818   0.25220325 
 2777000   -6.7950283    1.2010623    -5.593966   0.90084253   0.80090843    4242.7818   0.25159088 
 2778000   -6.7919968    1.2160188    -5.575978   0.93565236   0.81088192    4242.7818     0.251853 
 2779000   -6.7783777    1.1971184   -5.5812594   0.98101728   0.79827848    4242.7818   0.25534691 
 2780000   -6.8198515     1.182531   -5.6373205   0.73469093   0.78855111    4242.7818   0.25443638 
 2781000   -6.7915825    1.1824536   -5.6091289   0.87456995   0.78849951    4242.7818   0.24971479 
 2782000   -6.8033357    1.2099163   -5.5934194   0.84431962    0.8068126    4242.7818   0.24630405 
 2783000   -6.7748511    1.1793097   -5.5955414   0.96444578   0.78640307    4242.7818   0.24516195 
 2784000    -6.766897    1.1979237   -5.5689733    1.0282229   0.79881553    4242.7818   0.24864416 
 2785000   -6.7836957    1.2097954   -5.5739003    0.9503354   0.80673198    4242.7818   0.24969503 
 2786000   -6.7908509     1.194434   -5.5964168   0.93252634   0.79648847    4242.7818   0.25227628 
 2787000   -6.7836579     1.160794   -5.6228639   0.92885518   0.77405618    4242.7818   0.24718382 
 2788000   -6.8052424    1.1745948   -5.6306477   0.83317244   0.78325899    4242.7818   0.24392785 
 2789000   -6.8343073    1.2371469   -5.5971605   0.70391967   0.82497081    4242.7818   0.25110949 
 2790000   -6.7899963    1.2048065   -5.5851898   0.90747616   0.80340518    4242.7818   0.24647538 
 2791000   -6.7508609    1.2148524   -5.5360085     1.122166   0.81010414    4242.7818   0.25020197 
 2792000   -6.7947992    1.2329441   -5.5618551   0.90012651   0.82216827    4242.7818   0.24555016 
 2793000   -6.8003053     1.210933   -5.5893724   0.86307539   0.80749051    4242.7818   0.24306435 
 2794000   -6.7822184    1.1661556   -5.6160628   0.93683986   0.77763148    4242.7818   0.24324406 
 2795000   -6.8044388    1.2001184   -5.6043204   0.85399798   0.80027899    4242.7818   0.23761456 
 2796000   -6.7776508     1.186971   -5.5906798   0.97075774   0.79151186    4242.7818   0.24019322 
 2797000   -6.7761783    1.2004809   -5.5756974   0.98949159   0.80052071    4242.7818   0.23829725 
 2798000   -6.7791772    1.2209253   -5.5582519   0.99638782   0.81415372    4242.7818   0.24133419 
 2799000   -6.7882053     1.211633   -5.5765723   0.91772219   0.80795733    4242.7818   0.23828184 
 2800000   -6.7988612    1.2133374   -5.5855238   0.87191466   0.80909388    4242.7818   0.24053315 
 2801000   -6.7880299    1.1976126   -5.5904173   0.91513313   0.79860805    4242.7818   0.23829895 
 2802000   -6.8120136    1.2052414   -5.6067722   0.81543978   0.80369517    4242.7818   0.24128503 
 2803000   -6.7713154    1.1754031   -5.5959122   0.99236487   0.78379805    4242.7818   0.24240918 
 2804000   -6.7992487     1.212175   -5.5870737   0.86753977   0.80831876    4242.7818    0.2477929 
 2805000   -6.7818736     1.224123   -5.5577506   0.99342305   0.81628607    4242.7818    0.2541841 
 2806000   -6.7468531    1.1916124   -5.5552407     1.149221   0.79460695    4242.7818   0.25236963 
 2807000   -6.7908165    1.2078377   -5.5829788   0.90333504   0.80542647    4242.7818   0.25081307 
 2808000   -6.7924515    1.1868242   -5.6056273   0.87520755   0.79141396    4242.7818   0.24374433 
 2809000   -6.7747309    1.1979614   -5.5767696   0.99824972   0.79884062    4242.7818   0.24273095 
 2810000   -6.7803524    1.2297434   -5.5506089   0.96455738   0.82003397    4242.7818   0.24812863 
 2811000   -6.7554105    1.2078805     -5.54753    1.1042058   0.80545503    4242.7818   0.25514376 
 2812000   -6.7822484    1.1820995   -5.6001489   0.94621802   0.78826343    4242.7818   0.25284882 
 2813000   -6.7883489    1.1795721   -5.6087768    0.9115441   0.78657803    4242.7818   0.25697683 
 2814000    -6.807243    1.2095322   -5.5977109   0.83534006   0.80655641    4242.7818   0.25842922 
 2815000   -6.7760353    1.1938599   -5.5821754   0.99092272   0.79610562    4242.7818   0.25521339 
 2816000   -6.7890681     1.227202   -5.5618661   0.93506383   0.81833923    4242.7818   0.25619643 
 2817000   -6.7857691    1.2110153   -5.5747538   0.95309974   0.80754541    4242.7818   0.26265423 
 2818000   -6.7963354    1.2027849   -5.5935506   0.88255545   0.80205709    4242.7818   0.25406541 
 2819000   -6.7706486    1.2002309   -5.5704177    1.0145208   0.80035404    4242.7818   0.25222288 
 2820000   -6.7722513     1.217594   -5.5546573    1.0142133    0.8119323    4242.7818   0.24866103 
 2821000   -6.8008328    1.2332228     -5.56761   0.87887251   0.82235412    4242.7818   0.24489788 
 2822000   -6.8014101    1.2016178   -5.5997923   0.86425259   0.80127886    4242.7818   0.24220698 
 2823000   -6.7959985    1.2025446   -5.5934539   0.90992399   0.80189688    4242.7818   0.24487189 
 2824000   -6.7639991     1.211295   -5.5527042    1.0612181   0.80773192    4242.7818   0.25010196 
 2825000   -6.7922283    1.2185895   -5.5736387   0.92286612   0.81259617    4242.7818   0.24998104 
 2826000   -6.7945415    1.2088847   -5.5856569   0.89927539   0.80612464    4242.7818   0.25010228 
 2827000   -6.8054872    1.2027703   -5.6027168   0.83293814    0.8020474    4242.7818   0.24843856 
 2828000   -6.8221751    1.1899634   -5.6322117    0.7540949   0.79350733    4242.7818    0.2499581 
 2829000   -6.8012413    1.2094602   -5.5917811   0.87029473   0.80650842    4242.7818   0.25090719 
 2830000   -6.7871157     1.206677   -5.5804388   0.93959979   0.80465249    4242.7818   0.25597907 
 2831000   -6.7805682    1.1947857   -5.5857824   0.97480772   0.79672301    4242.7818     0.256982 
 2832000   -6.8011003    1.1816795   -5.6194207   0.84790573   0.78798335    4242.7818   0.26234988 
 2833000   -6.8000981    1.1879917   -5.6121064    0.8546536   0.79219252    4242.7818    0.2596838 
 2834000   -6.8015055    1.1995725    -5.601933   0.85822661   0.79991498    4242.7818   0.26311255 
 2835000   -6.7866709    1.2011402   -5.5855307   0.95634755   0.80096037    4242.7818   0.26547406 
 2836000    -6.789453    1.2327966   -5.5566563   0.94460929   0.82206994    4242.7818   0.26586912 
 2837000   -6.7751828    1.2167701   -5.5584127    1.0149366   0.81138292    4242.7818   0.26826741 
 2838000   -6.7931785    1.1913639   -5.6018147   0.90579892   0.79444118    4242.7818   0.27918068 
 2839000   -6.7738112    1.1876225   -5.5861887    1.0112134   0.79194629    4242.7818   0.28167218 
 2840000   -6.7495991      1.19833   -5.5512691    1.1449238   0.79908644    4242.7818   0.28130826 
 2841000   -6.7836392    1.2227582    -5.560881   0.96822044   0.81537599    4242.7818   0.29420936 
 2842000   -6.7950614    1.2295153   -5.5655461   0.92318312   0.81988184    4242.7818    0.2877287 
 2843000   -6.7834806    1.1976807   -5.5857999   0.95875002   0.79865345    4242.7818   0.29027064 
 2844000   -6.7761282    1.2091834   -5.5669448   0.98959258   0.80632385    4242.7818   0.29603077 
 2845000   -6.8035213    1.2096851   -5.5938362   0.85574612   0.80665842    4242.7818   0.29101979 
 2846000   -6.7962312     1.179794   -5.6164372   0.88283174   0.78672599    4242.7818   0.29220488 
 2847000   -6.7923942    1.2071892   -5.5852051   0.92599117   0.80499402    4242.7818   0.29893383 
 2848000   -6.7754005    1.1637707   -5.6116298   0.99638892   0.77604114    4242.7818   0.29931399 
 2849000   -6.8020943    1.1999624   -5.6021319   0.83683124   0.80017497    4242.7818    0.2983239 
 2850000   -6.8039181     1.208736   -5.5951821   0.86335762   0.80602553    4242.7818   0.30494839 
 2851000   -6.7790365    1.1994483   -5.5795882   0.97259989   0.79983218    4242.7818   0.30402533 
 2852000   -6.7961743    1.2282903    -5.567884   0.90596428   0.81906497    4242.7818    0.3056057 
 2853000   -6.7869122    1.2025307   -5.5843815   0.94927761   0.80188759    4242.7818   0.30879049 
 2854000   -6.8136101    1.1967835   -5.6168266   0.79203207   0.79805519    4242.7818   0.30384663 
 2855000   -6.8108778    1.1971772   -5.6137007   0.80965528   0.79831769    4242.7818   0.30692995 
 2856000    -6.781754    1.2177213   -5.5640326   0.98597792   0.81201722    4242.7818   0.31044808 
 2857000   -6.7736165    1.2173729   -5.5562436     1.013069   0.81178487    4242.7818   0.31148466 
 2858000   -6.8101581    1.2099323   -5.6002258   0.80774495   0.80682326    4242.7818   0.31045229 
 2859000   -6.8053303     1.194005   -5.6113253   0.84579607   0.79620239    4242.7818   0.31934844 
 2860000   -6.7837621    1.1892073   -5.5945548   0.96713933   0.79300312    4242.7818   0.31437434 
 2861000    -6.775254     1.196013    -5.579241   0.99367926   0.79754135    4242.7818   0.31150009 
 2862000   -6.7930477    1.2084487    -5.584599   0.89936615   0.80583391    4242.7818   0.30539514 
 2863000    -6.788415    1.1946947   -5.5937204   0.92472543   0.79666229    4242.7818   0.30766931 
 2864000   -6.7885015    1.1799018   -5.6085997   0.91721592   0.78679791    4242.7818   0.31166238 
 2865000   -6.8035205    1.1760003   -5.6275202   0.83899994   0.78419623    4242.7818   0.31675551 
 2866000   -6.7866345    1.2084463   -5.5781882   0.94062717   0.80583232    4242.7818    0.3190702 
 2867000   -6.7763641    1.2003741   -5.5759901    1.0042746   0.80044948    4242.7818   0.32432637 
 2868000   -6.7981162    1.2075664   -5.5905498   0.87777625   0.80524558    4242.7818   0.32070742 
 2869000   -6.8030361    1.1747949   -5.6282412   0.82580396   0.78339247    4242.7818   0.32794497 
 2870000    -6.787222    1.1770909   -5.6101311   0.94310136   0.78492351    4242.7818   0.33665643 
 2871000    -6.804595    1.2037152   -5.6008798   0.85516163   0.80267748    4242.7818   0.33716352 
 2872000   -6.7824432    1.1888549   -5.5935882   0.97519629   0.79276814    4242.7818   0.33728128 
 2873000    -6.781372    1.1862218   -5.5951502   0.95181865   0.79101231    4242.7818   0.33703176 
 2874000   -6.7824861    1.2089132   -5.5735729   0.97175767   0.80614368    4242.7818   0.34350359 
 2875000   -6.7819683    1.2108016   -5.5711667   0.96521136   0.80740293    4242.7818   0.35372925 
 2876000   -6.7836826    1.1974202   -5.5862623   0.94955233   0.79847978    4242.7818    0.3601672 
 2877000   -6.7887153    1.2292337   -5.5594816   0.96726911   0.81969408    4242.7818   0.37401199 
 2878000   -6.7615091    1.2050226   -5.5564865    1.0673698   0.80354932    4242.7818   0.37358083 
 2879000   -6.7820946    1.2374064   -5.5446882   0.99811944   0.82514387    4242.7818   0.37895649 
 2880000   -6.7841705    1.2140334   -5.5701371    1.0010966   0.80955801    4242.7818   0.38294733 
 2881000   -6.8020424    1.2108028   -5.5912396    0.8680408   0.80740374    4242.7818   0.38272679 
 2882000    -6.799371    1.1983084   -5.6010626   0.87284938   0.79907204    4242.7818   0.38389601 
 2883000   -6.8002284    1.2217064   -5.5785219   0.90347031   0.81467463    4242.7818   0.39094193 
 2884000   -6.7740683    1.1874211   -5.5866472   0.99872754   0.79181205    4242.7818   0.38759591 
 2885000   -6.7721026    1.1647552   -5.6073474    1.0068756   0.77669767    4242.7818   0.39106333 
 2886000   -6.7985708     1.191269   -5.6073018   0.89475523   0.79437796    4242.7818   0.39430193 
 2887000   -6.7978063    1.2057262   -5.5920801   0.87326161   0.80401846    4242.7818   0.39329007 
 2888000   -6.7948078    1.2180242   -5.5767836   0.90911271   0.81221921    4242.7818   0.39805348 
 2889000   -6.7497497    1.2116636   -5.5380862    1.1274223    0.8079777    4242.7818   0.39336511 
 2890000   -6.7664298    1.2097173   -5.5567125    1.0480251   0.80667988    4242.7818   0.39615638 
 2891000   -6.7701289    1.1942032   -5.5759257    1.0203094   0.79633456    4242.7818   0.39095455 
 2892000   -6.7764667    1.1982844   -5.5781823   0.99812506   0.79905605    4242.7818   0.39517764 
 2893000   -6.7802031    1.1811057   -5.5990974   0.97587593   0.78760072    4242.7818   0.39764707 
 2894000   -6.8180685    1.2057253   -5.6123431   0.77127754    0.8040179    4242.7818   0.40532956 
 2895000   -6.8012066    1.1689031   -5.6323035   0.84291299    0.7794636    4242.7818   0.40515382 
 2896000   -6.7881375    1.2032644   -5.5848732   0.92913836   0.80237686    4242.7818   0.40664122 
 2897000   -6.7800069    1.2065642   -5.5734427   0.97909605   0.80457728    4242.7818   0.40950656 
 2898000   -6.7700105    1.2100483   -5.5599622    1.0428062    0.8069006    4242.7818   0.40465275 
 2899000   -6.7913481    1.2048432   -5.5865049   0.91572498   0.80342966    4242.7818   0.40776574 
 2900000   -6.7781808    1.1668626   -5.6113182   0.97165219    0.7781029    4242.7818    0.4117217 
 2901000   -6.7803318    1.1853547   -5.5949771    0.9682919   0.79043405    4242.7818   0.40961666 
 2902000   -6.7855681    1.1916054   -5.5939627   0.93836836   0.79460225    4242.7818   0.41077441 
 2903000   -6.7937375    1.2145916   -5.5791459    0.9109566   0.80993021    4242.7818   0.40871941 
 2904000   -6.7810061    1.2190047   -5.5620013   0.98517976   0.81287304    4242.7818   0.41176484 
 2905000   -6.7862188    1.2052417   -5.5809771   0.96092386   0.80369539    4242.7818   0.40845692 
 2906000   -6.8075861      1.18599   -5.6215961   0.80165298   0.79085772    4242.7818   0.40604515 
 2907000   -6.7958838     1.167468   -5.6284158   0.87038786   0.77850661    4242.7818   0.41001592 
 2908000   -6.7926948    1.1953054   -5.5973894   0.89793071   0.79706952    4242.7818   0.41198507 
 2909000    -6.783443    1.1955257   -5.5879173   0.95106279   0.79721642    4242.7818   0.40589173 
 2910000   -6.7420884    1.1671949   -5.5748935    1.1292057   0.77832449    4242.7818   0.40810854 
 2911000   -6.7487451    1.1969551     -5.55179    1.1279414    0.7981696    4242.7818   0.41034712 
 2912000   -6.7622626    1.1917176    -5.570545    1.0555937   0.79467709    4242.7818   0.40309123 
 2913000   -6.7788388     1.176594   -5.6022448   0.94951984   0.78459213    4242.7818   0.39915085 
 2914000      -6.8029    1.1977146   -5.6051855   0.85056453   0.79867605    4242.7818   0.40141462 
 2915000   -6.7973366    1.2145256    -5.582811   0.88826677   0.80988618    4242.7818   0.40174663 
 2916000   -6.7801268    1.2027237    -5.577403   0.96422499   0.80201633    4242.7818   0.39904854 
 2917000   -6.8019323    1.2251009   -5.5768314   0.88295276   0.81693817    4242.7818   0.39936716 
 2918000    -6.792579    1.1910928   -5.6014862    0.8902992   0.79426041    4242.7818   0.40172876 
 2919000   -6.7814946    1.1739884   -5.6075061   0.94544525   0.78285467    4242.7818   0.40028525 
 2920000    -6.789441    1.1879624   -5.6014786   0.93515901   0.79217298    4242.7818   0.39844136 
 2921000   -6.7669936    1.1928847   -5.5741089    1.0481322   0.79545535    4242.7818    0.4016539 
 2922000   -6.7792505     1.222286   -5.5569646    0.9813739   0.81506107    4242.7818   0.39681033 
 2923000   -6.7822972    1.2020031   -5.5802941   0.93249748   0.80153576    4242.7818   0.39341782 
 2924000   -6.8054061    1.2082614   -5.5971447   0.81921572   0.80570906    4242.7818   0.40401976 
 2925000   -6.8025165    1.1952181   -5.6072985   0.83947761   0.79701129    4242.7818   0.39665714 
 2926000    -6.784856     1.196281   -5.5885751    0.9495016   0.79772006    4242.7818   0.40004737 
 2927000   -6.7740797    1.1924764   -5.5816033    0.9833367   0.79518308    4242.7818   0.40775492 
 2928000   -6.7795326    1.2019056    -5.577627   0.98345295   0.80147077    4242.7818   0.40455956 
 2929000   -6.8129671    1.1979312   -5.6150359   0.80169143   0.79882052    4242.7818   0.40420012 
 2930000   -6.7936958    1.1884286   -5.6052672   0.88890893   0.79248386    4242.7818   0.40072656 
 2931000   -6.7854312    1.1909073   -5.5945239   0.94399402   0.79413672    4242.7818   0.41623256 
 2932000   -6.7687488     1.200501   -5.5682478    1.0235124   0.80053413    4242.7818   0.41820019 
 2933000   -6.7812848    1.2111418    -5.570143    0.9703432   0.80762977    4242.7818   0.41795251 
 2934000    -6.789291    1.1756445   -5.6136465   0.90274978     0.783959    4242.7818    0.4127582 
 2935000   -6.8023354    1.1821462   -5.6201893   0.83396914   0.78829452    4242.7818   0.41155616 
 2936000   -6.7953096    1.2056852   -5.5896244   0.91090207   0.80399112    4242.7818   0.42486763 
 2937000   -6.7758815    1.2065029   -5.5693786   0.98345421   0.80453641    4242.7818   0.42632627 
 2938000   -6.7756681    1.2200613   -5.5556068    1.0059567   0.81357762    4242.7818   0.42466526 
 2939000   -6.7571062    1.2122971   -5.5448091    1.1124109   0.80840015    4242.7818   0.43179318 
 2940000   -6.8000824    1.1989876   -5.6010948   0.85246151   0.79952496    4242.7818   0.43020467 
 2941000   -6.7936306     1.181223   -5.6124076   0.90178857   0.78767893    4242.7818   0.42138856 
 2942000   -6.7837364    1.1989105   -5.5848259   0.94659373   0.79947353    4242.7818   0.42851424 
 2943000   -6.7788336    1.2060419   -5.5727917    0.9909317     0.804229    4242.7818    0.4399843 
 2944000   -6.7615062    1.1990557   -5.5624505    1.0753738   0.79957039    4242.7818   0.44146439 
 2945000   -6.7764446    1.2189017   -5.5575429    1.0056852   0.81280435    4242.7818   0.44516289 
 2946000    -6.761717     1.211013    -5.550704    1.0657109   0.80754391    4242.7818   0.44544269 
 2947000   -6.7800028    1.1975017    -5.582501   0.97558465   0.79853411    4242.7818   0.44923889 
 2948000   -6.7684254    1.1802812   -5.5881442    1.0104514   0.78705088    4242.7818   0.45350782 
 2949000   -6.8124875    1.2154483   -5.5970392   0.82596125    0.8105015    4242.7818     0.466723 
 2950000   -6.7892228    1.2202113   -5.5690115   0.94489164   0.81367764    4242.7818   0.46270705 
 2951000   -6.7669584    1.2086745   -5.5582839    1.0558952   0.80598451    4242.7818   0.46284161 
 2952000   -6.7848543    1.2181804   -5.5666739   0.98018042   0.81232338    4242.7818   0.47341049 
 2953000   -6.7792374    1.2053132   -5.5739242   0.98290678   0.80374307    4242.7818   0.47638931 
 2954000   -6.7668287     1.184925   -5.5819037    1.0404207   0.79014751    4242.7818   0.47821711 
 2955000   -6.7951431    1.1765537   -5.6185894   0.88425225   0.78456525    4242.7818   0.48704501 
 2956000   -6.8109588    1.1915555   -5.6194033   0.79938942   0.79456899    4242.7818   0.49236892 
 2957000    -6.785146    1.1764065   -5.6087395   0.92466713   0.78446712    4242.7818   0.48810259 
 2958000   -6.7865604    1.1889772   -5.5975832    0.9495646   0.79284966    4242.7818   0.48992373 
 2959000    -6.774546    1.2048833   -5.5696627     1.020457   0.80345641    4242.7818   0.50912712 
 2960000   -6.7604938    1.2165979   -5.5438959    1.0874173   0.81126809    4242.7818   0.50877604 
 2961000    -6.758492    1.2021348   -5.5563572    1.0579964   0.80162361    4242.7818   0.50768928 
 2962000   -6.7639224    1.1889075   -5.5750149    1.0691396   0.79280317    4242.7818   0.52208414 
 2963000   -6.7885259    1.1899479   -5.5985781   0.93436947   0.79349695    4242.7818   0.52181967 
 2964000   -6.7742177    1.1818624   -5.5923553    1.0074648   0.78810529    4242.7818   0.53045169 
 2965000   -6.7727536    1.1679474   -5.6048062   0.99708282    0.7788263    4242.7818   0.53806058 
 2966000   -6.7926963    1.2096941   -5.5830022   0.89263798   0.80666438    4242.7818   0.53789109 
 2967000   -6.7702441    1.2058653   -5.5643789    1.0325069   0.80411121    4242.7818   0.54263232 
 2968000   -6.7692858    1.1761831   -5.5931027    1.0290326   0.78431816    4242.7818   0.53944307 
 2969000    -6.795146    1.2002096   -5.5949364   0.88248851   0.80033982    4242.7818    0.5328148 
 2970000   -6.7768347    1.1981719   -5.5786628   0.98866275   0.79898104    4242.7818   0.54127921 
 2971000   -6.7719749    1.2261472   -5.5458276    1.0069939   0.81763589    4242.7818   0.53526902 
 2972000   -6.7834043    1.2094211   -5.5739832   0.96818961   0.80648237    4242.7818   0.54483196 
 2973000   -6.8132776    1.2241137   -5.5891639   0.80896855    0.8162799    4242.7818   0.54087367 
 2974000   -6.7971868    1.1971068   -5.6000799   0.88058756    0.7982708    4242.7818   0.53765058 
 2975000   -6.7736635    1.2098564    -5.563807    1.0161086   0.80677264    4242.7818   0.54517814 
 2976000   -6.7612282    1.2103929   -5.5508353    1.0653699   0.80713036    4242.7818   0.54101801 
 2977000   -6.8014225    1.2134361   -5.5879864   0.86441947    0.8091597    4242.7818   0.54785507 
 2978000     -6.79445    1.1898277   -5.6046224   0.89041236    0.7934168    4242.7818   0.54550216 
 2979000   -6.7848354    1.1979942   -5.5868411   0.92971968   0.79886254    4242.7818   0.54207308 
 2980000   -6.7751746    1.2038375   -5.5713371   0.99584612   0.80275905    4242.7818   0.55046651 
 2981000   -6.7593616    1.2010957   -5.5582658     1.086719   0.80093073    4242.7818   0.55043328 
 2982000   -6.7847462    1.2385793    -5.546167   0.97457883     0.825926    4242.7818   0.54878986 
 2983000   -6.7828288    1.2075197   -5.5753091   0.94741404   0.80521443    4242.7818   0.55579764 
 2984000   -6.8031323    1.2116395   -5.5914928   0.84565005   0.80796165    4242.7818   0.55970403 
 2985000    -6.783971    1.1997716   -5.5841994   0.94162075   0.80004775    4242.7818    0.5604111 
 2986000   -6.7781278    1.2156388   -5.5624891   0.99727566   0.81062849    4242.7818   0.56506553 
 2987000    -6.756332    1.1905298   -5.5658023    1.1041697   0.79388498    4242.7818   0.56519634 
 2988000   -6.7847303    1.1967691   -5.5879612   0.95971478   0.79804556    4242.7818   0.57572171 
 2989000   -6.7865226    1.1865828   -5.5999398   0.94354075   0.79125299    4242.7818   0.57181083 
 2990000   -6.7729415    1.1733123   -5.5996292    1.0050067   0.78240382    4242.7818   0.58561536 
 2991000     -6.79966    1.2049453   -5.5947147   0.85643004   0.80349775    4242.7818   0.58017791 
 2992000   -6.7947599    1.2125483   -5.5822117   0.89202199   0.80856765    4242.7818   0.58501837 
 2993000   -6.7881666    1.2111302   -5.5770365   0.92767651   0.80762202    4242.7818   0.57840262 
 2994000   -6.7727253    1.2194206   -5.5533047    1.0081145   0.81315038    4242.7818   0.58589278 
 2995000   -6.7776371    1.2061124   -5.5715247   0.98865395   0.80427597    4242.7818   0.57719207 
 2996000   -6.8004049    1.2257098   -5.5746951   0.88861955   0.81734422    4242.7818   0.59237204 
 2997000   -6.7838747    1.1936496   -5.5902251   0.95668211   0.79596537    4242.7818   0.58958063 
 2998000   -6.7725242    1.1994637   -5.5730604    1.0143788   0.79984245    4242.7818   0.58071656 
 2999000   -6.7600218    1.2018507   -5.5581711    1.0946066   0.80143418    4242.7818   0.57991936 
 3000000   -6.7804649    1.2285344   -5.5519306   0.97804731   0.81922771    4242.7818   0.57586966 
Loop time of 2544.51 on 2 procs for 400000 steps with 4000 atoms

Performance: 67910.893 tau/day, 157.201 timesteps/s
99.0% CPU use with 2 MPI tasks x no OpenMP threads

MPI task timing breakdown:
Section |  min time  |  avg time  |  max time  |%varavg| %total
---------------------------------------------------------------
Pair    | 2176.9     | 2181       | 2185.1     |   8.8 | 85.72
Neigh   | 229.25     | 229.89     | 230.53     |   4.2 |  9.03
Comm    | 90.354     | 95.071     | 99.788     |  48.4 |  3.74
Output  | 1.6242     | 1.7145     | 1.8048     |   6.9 |  0.07
Modify  | 29.6       | 29.693     | 29.785     |   1.7 |  1.17
Other   |            | 7.11       |            |       |  0.28

Nlocal:    2000 ave 2005 max 1995 min
Histogram: 1 0 0 0 0 0 0 0 0 1
Nghost:    6372 ave 6372 max 6372 min
Histogram: 2 0 0 0 0 0 0 0 0 0
Neighs:    214018 ave 214932 max 213105 min
Histogram: 1 0 0 0 0 0 0 0 0 1

Total # of neighbors = 428037
Ave neighs/atom = 107.009
Neighbor list builds = 20000
Dangerous builds not checked
unfix     intnvt
unfix     rdfnvt
uncompute rdfnvt
uncompute msd
undump    idnvt

next      a
jump      in.melt temploop #it will again transfer the call to label temploop line
variable    a loop 11   #loop parameter defined
variable    temp equal 0.3+($a-1)*0.1   #temp value will increase at rate of 0.1 from 0.3 till 1.3
variable    temp equal 0.3+(7-1)*0.1   

log       log.lammps.npt.${temp}
log       log.lammps.npt.0.9
