thermo    ${nthermo}
thermo    1000
thermo_style custom step pe ke etotal press temp vol c_msd[4]
dump      idnvt all atom 1000 out.dump.nvt.${temp}.lammpstrj
dump      idnvt all atom 1000 out.dump.nvt.0.9.lammpstrj
restart   100000 restartnpt1.data restartnp2.data

fix       intnvt all nvt temp ${temp} ${temp} ${tdamp}
fix       intnvt all nvt temp 0.9 ${temp} ${tdamp}
fix       intnvt all nvt temp 0.9 0.9 ${tdamp}
fix       intnvt all nvt temp 0.9 0.9 1
run       400000
Neighbor list info ...
  update every 20 steps, delay 0 steps, check no
  max neighbors/atom: 2000, page size: 100000
  master list distance cutoff = 3.8
  ghost atom cutoff = 3.8
  binsize = 1.9, bins = 9 9 9
  2 neighbor lists, perpetual/occasional/extra = 1 1 0
  (1) pair lj/cut, perpetual
      attributes: half, newton on
      pair build: half/bin/atomonly/newton
      stencil: half/bin/3d/newton
      bin: standard
  (2) compute rdf, occasional, copy from (1)
      attributes: half, newton on
      pair build: copy
      stencil: none
      bin: none
Per MPI rank memory allocation (min/avg/max) = 4.74 | 4.74 | 4.74 Mbytes
Step PotEng KinEng TotEng Press Temp Volume c_msd[4] 
 3100000   -5.5339965    1.3251024   -4.2088941     1.072112    0.8836225    4912.1546            0 
 3101000   -5.5744165    1.3536585    -4.220758   0.88303983   0.90266468    4912.1546   0.73373165 
 3102000   -5.5707174    1.3360582   -4.2346592   0.91910327   0.89092819    4912.1546    1.3349871 
 3103000   -5.5790866    1.3407889   -4.2382977   0.86688263   0.89408279    4912.1546    1.8734192 
 3104000   -5.5514407    1.3604604   -4.1909802    1.0151474   0.90720042    4912.1546    2.5365493 
 3105000   -5.5661421    1.3711501   -4.1949921   0.95322892   0.91432862    4912.1546    3.1962147 
 3106000   -5.5486473    1.3273704   -4.2212769   0.99065946   0.88513489    4912.1546    3.6947761 
 3107000   -5.5625083    1.3484182   -4.2140902   0.95738529   0.89917024    4912.1546     4.226583 
 3108000   -5.5636952    1.3459449   -4.2177503   0.90814654     0.897521    4912.1546    4.8041492 
 3109000   -5.5414224    1.3380312   -4.2033913    1.0329549   0.89224383    4912.1546    5.3672228 
 3110000   -5.5473727    1.3694611   -4.1779117    1.0196744   0.91320235    4912.1546    5.7934333 
 3111000   -5.5324671    1.3676373   -4.1648298    1.0784294   0.91198618    4912.1546     6.136273 
 3112000   -5.5402534    1.3662477   -4.1740058     1.033941   0.91105953    4912.1546    6.6424421 
 3113000   -5.5522064    1.3674783   -4.1847281    1.0307146   0.91188019    4912.1546     7.155878 
 3114000   -5.5322771    1.3340267   -4.1982504    1.1016482   0.88957354    4912.1546    7.7570451 
 3115000   -5.5566403    1.3562527   -4.2003876    1.0310992   0.90439457    4912.1546    8.2735755 
 3116000   -5.5601969    1.3359651   -4.2242318    0.9725511   0.89086615    4912.1546    8.9211806 
 3117000   -5.5681117     1.355255   -4.2128568    0.9123955   0.90372925    4912.1546    9.7770899 
 3118000   -5.5523446    1.3414456    -4.210899   0.98172775   0.89452072    4912.1546    10.494985 
 3119000   -5.5456232    1.3384482   -4.2071751    1.0029601   0.89252191    4912.1546    10.995933 
 3120000   -5.5487037    1.3565446   -4.1921591    1.0067112    0.9045892    4912.1546    11.471997 
 3121000   -5.5486736     1.377855   -4.1708186    1.0580121   0.91879972    4912.1546    12.002299 
 3122000   -5.5486263    1.3752458   -4.1733805    1.0370719   0.91705977    4912.1546    12.526809 
 3123000   -5.5873504    1.3248675   -4.2624828   0.82056211   0.88346587    4912.1546    13.015013 
 3124000   -5.5631263    1.3336436   -4.2294826   0.93864698   0.88931809    4912.1546    13.480721 
 3125000   -5.5660699    1.3598937   -4.2061762    0.9311661   0.90682247    4912.1546    13.986834 
 3126000   -5.5609181    1.3831301    -4.177788   0.98203939   0.92231734    4912.1546    14.485544 
 3127000    -5.551611     1.360859   -4.1907521   0.99898663   0.90746617    4912.1546    15.003238 
 3128000   -5.5210045    1.3381034   -4.1829011    1.1410168   0.89229202    4912.1546    15.361583 
 3129000   -5.5819073    1.3741189   -4.2077884   0.85604955   0.91630831    4912.1546    15.781235 
 3130000   -5.5722683    1.3478708   -4.2243975   0.90324512   0.89880522    4912.1546    16.313687 
 3131000   -5.5798023     1.325185   -4.2546174   0.83549715   0.88367756    4912.1546    16.815134 
 3132000   -5.5723577    1.3664614   -4.2058963   0.95679562   0.91120207    4912.1546    17.475864 
 3133000   -5.5293005    1.3539538   -4.1753467    1.1033676   0.90286159    4912.1546    18.151998 
 3134000   -5.5357173    1.3487935   -4.1869238    1.0889819   0.89942054    4912.1546    18.447881 
 3135000   -5.5372198    1.3733891   -4.1638306    1.0697586   0.91582171    4912.1546    19.088699 
 3136000   -5.5418886    1.3593714   -4.1825172    1.0487997   0.90647422    4912.1546    19.576127 
 3137000   -5.5335395    1.3545507   -4.1789887    1.0907146   0.90325964    4912.1546    20.247686 
 3138000   -5.5538117     1.357795   -4.1960168    1.0263865     0.905423    4912.1546    20.829277 
 3139000   -5.5785708    1.3594627   -4.2191081   0.89992252   0.90653512    4912.1546    21.669482 
 3140000   -5.5593692    1.3390538   -4.2203154   0.98420122   0.89292573    4912.1546    22.310216 
 3141000   -5.5514339    1.3402933   -4.2111406    1.0058545   0.89375231    4912.1546    23.112379 
 3142000   -5.5750287    1.3626001   -4.2124286   0.90671908    0.9086272    4912.1546    23.632183 
 3143000   -5.5735653    1.3665649   -4.2070004   0.90202508   0.91127106    4912.1546    24.280542 
 3144000   -5.5557212    1.3526582    -4.203063   0.98088525   0.90199763    4912.1546    24.734608 
 3145000   -5.5560595    1.3558724   -4.2001871   0.97475707   0.90414096    4912.1546    25.160666 
 3146000   -5.5355456    1.3673022   -4.1682434    1.1205532   0.91176273    4912.1546    25.341576 
 3147000   -5.5323546    1.3766372   -4.1557174    1.1281077    0.9179876    4912.1546    25.722519 
 3148000   -5.5462099    1.3678913   -4.1783186    1.0269018    0.9121556    4912.1546      26.2198 
 3149000   -5.5463109    1.3465577   -4.1997532    1.0467901   0.89792961    4912.1546    26.819375 
 3150000   -5.5603396    1.3306367   -4.2297029   0.94202448   0.88731294    4912.1546    27.366466 
 3151000   -5.5632216    1.3619193   -4.2013023   0.98287828   0.90817324    4912.1546    28.172601 
 3152000   -5.5633362    1.3427969   -4.2205393   0.93267757   0.89542181    4912.1546    28.858315 
 3153000   -5.5441174    1.3321482   -4.2119692    1.0263136   0.88832087    4912.1546    29.516626 
 3154000   -5.5756313    1.3527344   -4.2228969   0.87892511   0.90204843    4912.1546    29.993205 
 3155000   -5.5253736    1.3220935   -4.2032802    1.0874139   0.88161605    4912.1546     30.71672 
 3156000   -5.5654649    1.3570474   -4.2084175   0.99143279   0.90492448    4912.1546    31.403217 
 3157000   -5.5453597    1.3700285   -4.1753311    1.0318667   0.91358075    4912.1546    31.966073 
 3158000   -5.5463792    1.3526762    -4.193703    1.0111451   0.90200961    4912.1546    32.416215 
 3159000   -5.5918787    1.3699708    -4.221908   0.81640555   0.91354223    4912.1546    33.066195 
 3160000   -5.5563684    1.3438929   -4.2124755    0.9651624   0.89615264    4912.1546    33.408445 
 3161000   -5.5524465     1.356267   -4.1961795    1.0145292   0.90440411    4912.1546     33.97889 
 3162000   -5.5519627    1.3520024   -4.1999603    1.0000081   0.90156032    4912.1546    34.603971 
 3163000   -5.5497607    1.3720993   -4.1776613    1.0161024   0.91496163    4912.1546    35.070499 
 3164000   -5.5368857    1.3476799   -4.1892058    1.0651454   0.89867792    4912.1546    35.819954 
 3165000   -5.5745453    1.3720679   -4.2024773   0.92001766   0.91494067    4912.1546    36.590075 
 3166000    -5.573879    1.3588066   -4.2150724   0.93303711   0.90609762    4912.1546    37.100433 
 3167000   -5.5749268    1.3217303   -4.2531965    0.8754566    0.8813739    4912.1546    37.788234 
 3168000   -5.5866336    1.3523878   -4.2342457   0.82603356   0.90181734    4912.1546    38.468925 
 3169000   -5.5703453    1.3509063    -4.219439   0.88404995   0.90082939    4912.1546    39.199047 
 3170000   -5.5347069    1.3547492   -4.1799577    1.0866262   0.90339198    4912.1546    39.919013 
 3171000   -5.5534764    1.3531257   -4.2003507   0.99951657   0.90230937    4912.1546     40.70442 
 3172000   -5.5765152    1.3483609   -4.2281543   0.89495621   0.89913204    4912.1546    41.426694 
 3173000   -5.5720613    1.3364971   -4.2355642   0.91210081   0.89122087    4912.1546    42.066172 
 3174000   -5.5713499    1.3463506   -4.2249994   0.90272276   0.89779151    4912.1546    42.512898 
 3175000   -5.5423208    1.3496031   -4.1927178    1.0349916   0.89996036    4912.1546    43.244169 
 3176000   -5.5477381    1.3621784   -4.1855597    1.0180911   0.90834601    4912.1546     43.71315 
 3177000   -5.5397964    1.3672676   -4.1725289    1.0464394   0.91173965    4912.1546    44.070148 
 3178000   -5.5170369     1.342969   -4.1740679    1.1542262   0.89553657    4912.1546    44.554347 
 3179000   -5.5717891     1.347349   -4.2244401   0.91612598   0.89845728    4912.1546    44.843355 
 3180000   -5.5488695    1.3439358   -4.2049337    1.0372408   0.89618123    4912.1546    45.577387 
 3181000   -5.5408695    1.3284995   -4.2123699    1.0080883   0.88588782    4912.1546    46.296959 
 3182000   -5.5437014    1.3516767   -4.1920247    1.0347737   0.90134315    4912.1546    47.052525 
 3183000   -5.5473368     1.370507   -4.1768298    1.0103232    0.9138998    4912.1546    47.691365 
 3184000   -5.5462817    1.3832797    -4.163002    1.0742774   0.92241706    4912.1546     48.31603 
 3185000    -5.555245    1.3811049   -4.1741401   0.98645972   0.92096687    4912.1546    48.883053 
 3186000   -5.5139371    1.3387618   -4.1751753    1.1531245   0.89273105    4912.1546    49.904093 
 3187000    -5.545318    1.3214237   -4.2238944    1.0124079   0.88116942    4912.1546    50.746389 
 3188000   -5.5461647    1.3267023   -4.2194624    1.0113357    0.8846894    4912.1546    51.223519 
 3189000   -5.5723843    1.3243623   -4.2480219   0.89415121     0.883129    4912.1546    51.157409 
 3190000   -5.5781342    1.3481325   -4.2300017   0.86037894   0.89897975    4912.1546    51.641754 
 3191000   -5.5496474    1.3588613   -4.1907861    0.9891155   0.90613409    4912.1546    52.138754 
 3192000   -5.5629721     1.381174   -4.1817981    1.0075798   0.92101291    4912.1546    52.749702 
 3193000   -5.5371871    1.3670581    -4.170129    1.1012847       0.9116    4912.1546    53.315268 
 3194000   -5.5300904    1.3731156   -4.1569749    1.1104606   0.91563929    4912.1546    53.806611 
 3195000   -5.5333521    1.3481828   -4.1851694    1.1281445   0.89901326    4912.1546    54.351766 
 3196000   -5.5319347    1.3567591   -4.1751757    1.0794021   0.90473223    4912.1546    55.012777 
 3197000   -5.5292203    1.3773619   -4.1518583    1.1357309   0.91847091    4912.1546    55.480255 
 3198000   -5.5429482    1.3629484   -4.1799998    1.0498918   0.90885946    4912.1546    56.381045 
 3199000   -5.5579334    1.3445742   -4.2133591   0.99568718   0.89660698    4912.1546    56.685216 
 3200000   -5.5750494    1.3651295   -4.2099199   0.90965569    0.9103139    4912.1546    57.259087 
 3201000   -5.5671094    1.3380942   -4.2290152   0.90832033   0.89228585    4912.1546    57.572292 
 3202000    -5.571041    1.3214997   -4.2495413   0.86091748   0.88122013    4912.1546     58.21296 
 3203000   -5.5488176    1.3735793   -4.1752383   0.99456709   0.91594849    4912.1546    58.746257 
 3204000   -5.5544047    1.3616578   -4.1927468    0.9999104   0.90799888    4912.1546    59.450517 
 3205000   -5.5550713    1.3498934   -4.2051779   0.99450906   0.90015394    4912.1546    59.766528 
 3206000   -5.5726149    1.3418199    -4.230795   0.87400924   0.89477027    4912.1546    60.019939 
 3207000   -5.5674779    1.3490894   -4.2183886   0.94518064   0.89961783    4912.1546    60.591983 
 3208000   -5.5470736    1.3496464   -4.1974272    1.0342764   0.89998925    4912.1546     60.98222 
 3209000    -5.529872    1.3609862   -4.1688858    1.1230514   0.90755103    4912.1546    61.444511 
 3210000   -5.5568157     1.373834   -4.1829817   0.97746292   0.91611835    4912.1546    61.771515 
 3211000   -5.5387127    1.3502391   -4.1884736    1.0354726   0.90038452    4912.1546     62.15203 
 3212000   -5.5655433    1.3419562   -4.2235871   0.92642173   0.89486118    4912.1546    62.859108 
 3213000   -5.5303933    1.3085842   -4.2218091    1.0891094   0.87260762    4912.1546    63.411859 
 3214000   -5.5681109     1.349148   -4.2189629   0.89589091    0.8996569    4912.1546     63.72217 
 3215000   -5.5795966    1.3686552   -4.2109414   0.88090917   0.91266499    4912.1546    64.275875 
 3216000   -5.5601292    1.3470323   -4.2130969   0.97419178   0.89824612    4912.1546     64.63299 
 3217000   -5.5629094    1.3614174    -4.201492   0.96581236   0.90783853    4912.1546    65.131903 
 3218000   -5.5400381    1.3394954   -4.2005427    1.0322921   0.89322027    4912.1546    65.494174 
 3219000   -5.5541999    1.3396908   -4.2145091   0.98406926   0.89335054    4912.1546    65.770626 
 3220000   -5.5293474    1.4173893   -4.1119582    1.1755332   0.94516246    4912.1546     66.12329 
 3221000   -5.5648418    1.3522149   -4.2126269   0.93930355   0.90170201    4912.1546    67.013633 
 3222000   -5.5580362    1.3441738   -4.2138623   0.96402466   0.89633998    4912.1546    67.069889 
 3223000   -5.5494022    1.3440307   -4.2053715   0.98340084   0.89624452    4912.1546     67.90891 
 3224000   -5.5577913    1.3771044   -4.1806869   0.97364833   0.91829916    4912.1546    68.335385 
 3225000   -5.5362422    1.3561023   -4.1801399    1.1026767    0.9042943    4912.1546    68.860011 
 3226000   -5.5472881    1.3623861    -4.184902    1.0160645   0.90848453    4912.1546    69.372665 
 3227000   -5.5696646     1.363809   -4.2058556   0.91747876   0.90943337    4912.1546    69.823875 
 3228000   -5.5496742    1.3434959   -4.2061783   0.99708559   0.89588789    4912.1546    70.549813 
 3229000   -5.5746705    1.3351851   -4.2394855   0.89026677   0.89034597    4912.1546    71.160677 
 3230000   -5.5739385    1.3420617   -4.2318768   0.90994273   0.89493153    4912.1546    71.739393 
 3231000   -5.5559149    1.3629301   -4.1929848   0.97594085   0.90884731    4912.1546    72.118346 
 3232000   -5.5443586     1.359216   -4.1851425    1.0506435   0.90637061    4912.1546    72.921461 
 3233000   -5.5342802    1.3570569   -4.1772234    1.0961052   0.90493081    4912.1546    73.604798 
 3234000   -5.5392145    1.3831385   -4.1560759    1.0750207   0.92232294    4912.1546    74.685007 
 3235000    -5.522456    1.3622836   -4.1601725    1.1480533   0.90841615    4912.1546    75.311874 
 3236000   -5.5710718    1.3513383   -4.2197335   0.88178803   0.90111749    4912.1546    76.348701 
 3237000   -5.5562316    1.3382827   -4.2179488   0.98077748   0.89241158    4912.1546    76.887859 
 3238000   -5.5433085    1.3792428   -4.1640657    1.0542085   0.91972511    4912.1546    77.241222 
 3239000   -5.5232332    1.3410882    -4.182145    1.1292092   0.89428239    4912.1546    77.957535 
 3240000   -5.5701143    1.3705848   -4.1995296   0.93873875   0.91395166    4912.1546    78.404359 
 3241000   -5.5549023    1.3693165   -4.1855858    1.0264385   0.91310595    4912.1546    78.721039 
 3242000   -5.5220167     1.340877   -4.1811397    1.1405354   0.89414155    4912.1546    79.193339 
 3243000   -5.5369587    1.3700866   -4.1668721    1.0997288   0.91361944    4912.1546    79.680792 
 3244000   -5.5550064    1.3603672   -4.1946392   0.95940279   0.90713826    4912.1546    80.127657 
 3245000   -5.5536635      1.36522   -4.1884435    0.9878755   0.91037426    4912.1546    80.839629 
 3246000   -5.5500614    1.3783008   -4.1717606    1.0050999   0.91909699    4912.1546    81.237168 
 3247000   -5.5299413    1.3286274   -4.2013139    1.0894974   0.88597309    4912.1546    81.414685 
 3248000   -5.5410011    1.3859601   -4.1550409    1.0823253   0.92420447    4912.1546    82.104662 
 3249000   -5.5499621    1.3541123   -4.1958498    1.0304232    0.9029673    4912.1546    82.433806 
 3250000   -5.5561409      1.34329   -4.2128509   0.99619343    0.8957506    4912.1546    83.545874 
 3251000   -5.5778812    1.3481009   -4.2297803   0.85634337    0.8989587    4912.1546    84.118844 
 3252000   -5.5588829    1.3450252   -4.2138577   0.95597039   0.89690772    4912.1546    84.866703 
 3253000   -5.5543303    1.3589617   -4.1953686   0.96903226   0.90620101    4912.1546    85.419985 
 3254000    -5.562905     1.373611    -4.189294   0.94467292   0.91596963    4912.1546    85.956244 
 3255000   -5.5469472    1.3635767   -4.1833706    1.0538989   0.90927844    4912.1546    86.775526 
 3256000   -5.5499525    1.3504613   -4.1994912    1.0212485   0.90053265    4912.1546     87.55682 
 3257000   -5.5635445    1.3400702   -4.2234744    0.9678136   0.89360351    4912.1546    88.357359 
 3258000   -5.5663617    1.3095577    -4.256804   0.91627791   0.87325675    4912.1546    88.725546 
 3259000   -5.5343753    1.3164356   -4.2179397    1.0510399   0.87784322    4912.1546    90.003178 
 3260000   -5.5696529    1.3651735   -4.2044794   0.95133738   0.91034322    4912.1546    90.718377 
 3261000   -5.5556543    1.3581231   -4.1975312    0.9410094   0.90564183    4912.1546    91.081492 
 3262000   -5.5618212    1.3250775   -4.2367437    0.9514287   0.88360591    4912.1546    91.367474 
 3263000   -5.5635343    1.3424505   -4.2210838   0.96786503   0.89519082    4912.1546    91.518947 
 3264000   -5.5563741    1.3413023   -4.2150718    0.9620675   0.89442511    4912.1546     92.07783 
 3265000   -5.5357461     1.313467   -4.2222791    1.0737584   0.87586366    4912.1546    92.470515 
 3266000    -5.564629    1.3222921   -4.2423369   0.94225642   0.88174849    4912.1546    92.912863 
 3267000   -5.5630075    1.3237087   -4.2392987   0.92938262   0.88269317    4912.1546    93.249206 
 3268000   -5.5309951    1.3539408   -4.1770542    1.1205126   0.90285292    4912.1546    93.427073 
 3269000   -5.5635496    1.3666381   -4.1969115   0.93074791   0.91131993    4912.1546    94.017264 
 3270000   -5.5797388    1.3322828    -4.247456   0.86197233   0.88841064    4912.1546    94.692808 
 3271000   -5.5300647    1.3480053   -4.1820594    1.0773376    0.8988949    4912.1546     94.93853 
 3272000    -5.544506    1.3729748   -4.1715312    1.0363289   0.91554539    4912.1546    95.404774 
 3273000   -5.5522261    1.3927876   -4.1594385    1.0201141   0.92875726    4912.1546    95.988969 
 3274000   -5.5509454    1.3496561   -4.2012894    1.0164971   0.89999571    4912.1546    96.380298 
 3275000   -5.5445067    1.3255413   -4.2189654    1.0221637   0.88391516    4912.1546    97.163301 
 3276000    -5.532907    1.3217287   -4.2111783    1.0700098    0.8813728    4912.1546    97.436994 
 3277000   -5.5659099    1.3450431   -4.2208668   0.96972611   0.89691963    4912.1546    98.141379 
 3278000    -5.577917    1.3367237   -4.2411934   0.87963971   0.89137196    4912.1546    99.192562 
 3279000   -5.5655909    1.3248483   -4.2407426   0.93109754   0.88345307    4912.1546     99.72892 
 3280000   -5.5636192    1.3571819   -4.2064374   0.98535301   0.90501417    4912.1546    100.43727 
 3281000   -5.5550872    1.3422733    -4.212814   0.93508665   0.89507261    4912.1546    100.70761 
 3282000   -5.5598407    1.3704214   -4.1894194   0.94691852    0.9138427    4912.1546    100.87506 
 3283000   -5.5470681    1.3695546   -4.1775135    1.0442394    0.9132647    4912.1546    101.59883 
 3284000   -5.5466956    1.3520225   -4.1946732    1.0523161   0.90157372    4912.1546     101.9047 
 3285000   -5.5724114    1.3557598   -4.2166516   0.91260729   0.90406586    4912.1546     101.9528 
 3286000     -5.54432     1.326903    -4.217417    1.0035586    0.8848232    4912.1546    102.62534 
 3287000   -5.5604353    1.3414365   -4.2189987   0.95768259   0.89451465    4912.1546    103.12371 
 3288000   -5.5478908    1.3458225   -4.2020683    1.0565148   0.89743938    4912.1546     104.2435 
 3289000   -5.5276898    1.3556904   -4.1719995    1.1063307   0.90401957    4912.1546    104.88757 
 3290000   -5.5502383    1.3525738   -4.1976645    1.0214036   0.90194133    4912.1546    105.53095 
 3291000   -5.5333091    1.3270287   -4.2062804    1.1084653   0.88490701    4912.1546    106.09794 
 3292000    -5.576772    1.3211222   -4.2556498   0.88010176   0.88096836    4912.1546    106.97185 
 3293000    -5.562652    1.3417676   -4.2208845   0.92851066    0.8947354    4912.1546    107.27645 
 3294000   -5.5636261    1.3693365   -4.1942896    1.0169894    0.9131193    4912.1546    107.47331 
 3295000   -5.5491796    1.3660125   -4.1831671    1.0056358   0.91090272    4912.1546    108.46165 
 3296000   -5.5505935      1.34275   -4.2078435    1.0319339   0.89539054    4912.1546    109.36386 
 3297000   -5.5479738    1.3536048   -4.1943691    1.0399408   0.90262882    4912.1546    109.65952 
 3298000   -5.5443398    1.3505635   -4.1937763    1.0317349   0.90060081    4912.1546    109.87786 
 3299000   -5.5408451    1.3705101    -4.170335     1.066925   0.91390189    4912.1546    110.60133 
 3300000   -5.5144877    1.3759318   -4.1385559    1.1832035   0.91751724    4912.1546    111.27993 
 3301000   -5.5616614    1.3568496   -4.2048119    0.9713081   0.90479258    4912.1546    111.73426 
 3302000   -5.5617776    1.3523536   -4.2094239   0.94527329   0.90179453    4912.1546    112.22481 
 3303000   -5.5785549    1.3402545   -4.2383004    0.8848328   0.89372641    4912.1546    112.54834 
 3304000   -5.5637215    1.3073913   -4.2563302   0.93194702   0.87181214    4912.1546    113.18812 
 3305000   -5.5573521    1.3613957   -4.1959564   0.99281216   0.90782408    4912.1546     113.7806 
 3306000   -5.5471796    1.3695349   -4.1776447    1.0317617   0.91325156    4912.1546    114.38336 
 3307000   -5.5213358    1.3539807   -4.1673551    1.1365875   0.90287952    4912.1546    114.90697 
 3308000   -5.5603564    1.3366299   -4.2237265   0.91789674   0.89130945    4912.1546    115.43062 
 3309000   -5.5485899    1.3300626   -4.2185273   0.95083724    0.8869301    4912.1546    115.76073 
 3310000   -5.5763807    1.3397127    -4.236668   0.85422584   0.89336514    4912.1546    116.81569 
 3311000   -5.5604092    1.3163604   -4.2440489   0.93550529   0.87779302    4912.1546    117.42346 
 3312000   -5.5599471    1.3289873   -4.2309599    0.9574026   0.88621306    4912.1546    117.62091 
 3313000   -5.5602172    1.3516976   -4.2085195   0.96306588   0.90135708    4912.1546    118.08995 
 3314000    -5.557338    1.3757568   -4.1815812    1.0361355   0.91740058    4912.1546    118.59093 
 3315000   -5.5462602    1.3709823   -4.1752778    1.0507516   0.91421677    4912.1546    119.32751 
 3316000   -5.5410492    1.3548965   -4.1861527    1.0650307   0.90349021    4912.1546    119.63671 
 3317000   -5.5456993    1.3423202   -4.2033791   0.99062475    0.8951039    4912.1546    120.06515 
 3318000   -5.5531249    1.3542371   -4.1988878     1.009092   0.90305048    4912.1546    120.50284 
 3319000   -5.5663103    1.3571833   -4.2091271   0.91401015    0.9050151    4912.1546    121.57173 
 3320000   -5.5447451    1.3391694   -4.2055757    1.0234014   0.89300284    4912.1546    122.46503 
 3321000   -5.5518612    1.3323631   -4.2194981    1.0101031    0.8884642    4912.1546    123.50172 
 3322000   -5.5624845    1.3375342   -4.2249503   0.93999621   0.89191244    4912.1546    123.94488 
 3323000   -5.5566484    1.3598173   -4.1968311    1.0071474   0.90677155    4912.1546    124.60007 
 3324000   -5.5675083    1.3744888   -4.1930195   0.93619538   0.91655499    4912.1546    125.29439 
 3325000   -5.5332623    1.3647439   -4.1685184    1.0958209   0.91005677    4912.1546    126.02385 
 3326000   -5.5436334    1.3448607   -4.1987727    1.0117147   0.89679797    4912.1546    126.63597 
 3327000   -5.5575811    1.3468941    -4.210687   0.99479871   0.89815391    4912.1546    127.04722 
 3328000   -5.5510022    1.3424364   -4.2085658    1.0325893   0.89518137    4912.1546    127.62299 
 3329000   -5.5626196    1.3671244   -4.1954952   0.97699263   0.91164414    4912.1546    127.77908 
 3330000   -5.5532796    1.3738738   -4.1794058    1.0168848   0.91614487    4912.1546    128.04917 
 3331000   -5.5513886    1.3878889   -4.1634997    1.0232587   0.92549064    4912.1546    128.28095 
 3332000   -5.5463818    1.3562366   -4.1901452    1.0315468   0.90438384    4912.1546    128.45649 
 3333000   -5.5485746    1.3724763   -4.1760983    1.0399523   0.91521298    4912.1546    129.16898 
 3334000   -5.5317516    1.3439216     -4.18783    1.0790009   0.89617178    4912.1546    129.88354 
 3335000   -5.5520687    1.3585357    -4.193533    1.0265785   0.90591695    4912.1546    130.75494 
 3336000   -5.5738715    1.3479751   -4.2258964    0.8971518    0.8988748    4912.1546     130.4965 
 3337000   -5.5915661    1.3578077   -4.2337584   0.83474378   0.90543149    4912.1546    131.17374 
 3338000    -5.552631    1.3311486   -4.2214825   0.96211881   0.88765429    4912.1546    131.56906 
 3339000   -5.5548471    1.3452654   -4.2095817   0.96529822   0.89706787    4912.1546    132.28823 
 3340000   -5.5760417    1.3881929   -4.1878489   0.91630259   0.92569332    4912.1546     132.9123 
 3341000   -5.5577287    1.3351193   -4.2226094   0.95268811   0.89030213    4912.1546    133.70045 
 3342000   -5.5451739     1.333477   -4.2116969    1.0034698   0.88920697    4912.1546    133.90092 
 3343000   -5.5644767    1.3468424   -4.2176343   0.94653788   0.89811947    4912.1546    134.17298 
 3344000   -5.5361734    1.3369653   -4.1992081    1.0585718   0.89153308    4912.1546    134.71091 
 3345000    -5.554395    1.3722236   -4.1821715   0.96643049   0.91504447    4912.1546     135.1254 
 3346000   -5.5653685    1.3488582   -4.2165103   0.96730694   0.89946367    4912.1546    135.57881 
 3347000   -5.5424113    1.3146954   -4.2277159    1.0605503   0.87668279    4912.1546    136.88557 
 3348000    -5.569254    1.3341378   -4.2351162   0.90033678    0.8896476    4912.1546    137.46229 
 3349000   -5.5506323    1.3420525   -4.2085797    1.0048215   0.89492543    4912.1546    137.62021 
 3350000   -5.5494859    1.3485513   -4.2009345   0.99688001   0.89925904    4912.1546    138.24356 
 3351000    -5.560247    1.3409129   -4.2193341   0.93292402   0.89416548    4912.1546    138.97199 
 3352000   -5.5497803    1.3337359   -4.2160444   0.98555631   0.88937961    4912.1546    139.50825 
 3353000   -5.5539689    1.3460459    -4.207923   0.98284041   0.89758835    4912.1546    139.84746 
 3354000   -5.5204912    1.3735631    -4.146928    1.1153813   0.91593774    4912.1546    140.59986 
 3355000   -5.5466441    1.3655916   -4.1810524    1.0726975   0.91062207    4912.1546    141.47119 
 3356000   -5.5343173    1.3505701   -4.1837472    1.0936122   0.90060519    4912.1546    142.20899 
 3357000   -5.5324906    1.3304121   -4.2020785    1.0998209   0.88716322    4912.1546    142.97662 
 3358000   -5.5589209    1.3424256   -4.2164953   0.96926939   0.89517416    4912.1546    143.79727 
 3359000   -5.5605763    1.3470854   -4.2134908   0.93365369   0.89828153    4912.1546     144.4018 
 3360000   -5.5546174    1.3469704    -4.207647   0.99488409   0.89820479    4912.1546    144.53087 
 3361000    -5.559966    1.3648352   -4.1951308   0.97225176   0.91011769    4912.1546    144.89336 
 3362000   -5.5468159    1.3473751   -4.1994408    1.0349286   0.89847466    4912.1546    145.55379 
 3363000   -5.5713868    1.3655404   -4.2058464   0.90556084   0.91058792    4912.1546    146.41315 
 3364000   -5.5661888    1.3467678    -4.219421   0.95889609    0.8980697    4912.1546    147.01387 
 3365000   -5.5433345    1.3149679   -4.2283666    1.0177404   0.87686445    4912.1546    147.72631 
 3366000   -5.5451237    1.3401636     -4.20496    1.0321175   0.89366582    4912.1546    148.54622 
 3367000   -5.5514923    1.3503945   -4.2010978   0.99950627   0.90048811    4912.1546    149.06205 
 3368000   -5.5540554    1.3597711   -4.1942843    1.0084824   0.90674076    4912.1546    149.66923 
 3369000   -5.5721076    1.3802157   -4.1918919   0.94436675   0.92037392    4912.1546    149.85913 
 3370000   -5.5610798    1.3509576   -4.2101222   0.99230825   0.90086361    4912.1546    150.45789 
 3371000   -5.5752436    1.3566444   -4.2185992   0.88905261   0.90465578    4912.1546    150.65241 
 3372000     -5.53262    1.3364437   -4.1961762    1.0791394    0.8911853    4912.1546    151.47387 
 3373000    -5.538623    1.3435818   -4.1950412    1.0470546   0.89594518    4912.1546    151.65273 
 3374000   -5.5473704    1.3623871   -4.1849834    1.0159692   0.90848516    4912.1546    152.06327 
 3375000   -5.5696456    1.3593681   -4.2102775   0.93652955   0.90647203    4912.1546    152.71237 
 3376000   -5.5866614     1.339561   -4.2471004   0.82370858   0.89326399    4912.1546    153.29292 
 3377000   -5.5762167    1.3392452   -4.2369715   0.87555744   0.89305341    4912.1546    153.55384 
 3378000   -5.5746754    1.3468388   -4.2278365   0.88464845   0.89811709    4912.1546    153.77486 
 3379000   -5.5536754    1.3357319   -4.2179435    1.0081048    0.8907106    4912.1546    154.14498 
 3380000    -5.562737    1.3615926   -4.2011444   0.93576573   0.90795539    4912.1546    154.49738 
 3381000   -5.5356681    1.3255235   -4.2101445    1.0385799   0.88390332    4912.1546    155.33911 
 3382000   -5.5442169    1.3205308   -4.2236861    1.0321652   0.88057399    4912.1546    155.94914 
 3383000   -5.5394601    1.3146392   -4.2248209    1.0630612   0.87664529    4912.1546    156.67905 
 3384000   -5.5632197    1.3541062   -4.2091135   0.97141694   0.90296321    4912.1546    157.15836 
 3385000   -5.5166098    1.3653769   -4.1512329    1.1654256   0.91047887    4912.1546    157.61259 
 3386000   -5.5200221    1.3521948   -4.1678273    1.1507319    0.9016886    4912.1546    158.14228 
 3387000   -5.5427238    1.3645496   -4.1781742    1.0529127   0.90992723    4912.1546    158.77156 
 3388000   -5.5663487    1.3586264   -4.2077223   0.94319881   0.90597745    4912.1546    159.46845 
 3389000   -5.5759277    1.3471041   -4.2288236    0.8826344   0.89829397    4912.1546    160.04391 
 3390000    -5.567377    1.3164388   -4.2509382   0.92208414   0.87784536    4912.1546    160.62432 
 3391000   -5.5485129    1.3437333   -4.2047796     1.027657   0.89604619    4912.1546    161.42714 
 3392000   -5.5560612    1.3691115   -4.1869498    0.9827831   0.91296923    4912.1546    162.25337 
 3393000   -5.5526625    1.3539211   -4.1987414    1.0134574   0.90283978    4912.1546    162.71069 
 3394000   -5.5682386    1.3305764   -4.2376622   0.89250044   0.88727275    4912.1546    163.29571 
 3395000   -5.5589447     1.339758   -4.2191867   0.98389321   0.89339538    4912.1546    163.71271 
 3396000   -5.5342539    1.3229017   -4.2113522    1.0273715   0.88215501    4912.1546     164.4427 
 3397000   -5.5640984    1.3346621   -4.2294363   0.93339084   0.88999722    4912.1546    164.83884 
 3398000   -5.5908694    1.3535747   -4.2372947   0.82053528   0.90260882    4912.1546    164.62817 
 3399000   -5.5570651    1.3297989   -4.2272662    1.0181305    0.8867543    4912.1546    165.25399 
 3400000   -5.5495201     1.344689   -4.2048312   0.95844526   0.89668347    4912.1546    165.83787 
 3401000   -5.5416053    1.3455806   -4.1960247    1.0812288   0.89727806    4912.1546    166.09199 
 3402000   -5.5658443    1.3683717   -4.1974726   0.95439064   0.91247593    4912.1546      166.835 
 3403000   -5.5658316    1.3768331   -4.1889985   0.93326491   0.91811829    4912.1546    167.27921 
 3404000   -5.5639378    1.3772236   -4.1867142   0.99240026   0.91837869    4912.1546    167.99119 
 3405000   -5.5652389    1.3576113   -4.2076276   0.96732406   0.90530052    4912.1546    168.66818 
 3406000   -5.5598862    1.3267526   -4.2331336   0.95748853   0.88472289    4912.1546    169.41422 
 3407000   -5.5535813    1.3247439   -4.2288373    1.0007008   0.88338346    4912.1546    170.25856 
 3408000   -5.5536473    1.3488001   -4.2048473   0.98511179    0.8994249    4912.1546    170.95651 
 3409000   -5.5485711    1.3577487   -4.1908224   0.99583332   0.90539216    4912.1546     171.0431 
 3410000   -5.5505469    1.3495246   -4.2010223   0.98327053   0.89990802    4912.1546    171.71995 
 3411000   -5.5514213    1.3310116   -4.2204097   0.98102115   0.88756297    4912.1546    172.57407 
 3412000   -5.5475662    1.3180007   -4.2295655   0.99039719   0.87888687    4912.1546    173.93797 
 3413000   -5.5644165    1.3174415    -4.246975   0.93006586   0.87851398    4912.1546    174.64184 
 3414000   -5.5689907    1.3268719   -4.2421188   0.91005495    0.8848025    4912.1546    175.37373 
 3415000   -5.5426129    1.3230455   -4.2195674    1.0119102   0.88225092    4912.1546    176.18525 
 3416000   -5.5536069    1.3508105   -4.2027964   0.98216725   0.90076552    4912.1546     176.8151 
 3417000   -5.5376998     1.353399   -4.1843008    1.0353546   0.90249164    4912.1546    177.50977 
 3418000   -5.5375799    1.3868665   -4.1507135    1.1217548   0.92480886    4912.1546    178.28516 
 3419000   -5.5556216    1.3784886    -4.177133    1.0124383   0.91922222    4912.1546    179.06821 
 3420000   -5.5439321    1.3484768   -4.1954552    1.0329323   0.89920935    4912.1546    179.97729 
 3421000   -5.5521083    1.3360975   -4.2160109    1.0001404   0.89095438    4912.1546    180.22436 
 3422000   -5.5533974    1.3327979   -4.2205995   0.96720855    0.8887541    4912.1546    180.73809 
 3423000   -5.5552984    1.3213412   -4.2339572    0.9791542   0.88111443    4912.1546    181.81628 
 3424000   -5.5558361    1.3511216   -4.2047145    1.0158906   0.90097298    4912.1546    182.20908 
 3425000   -5.5524412    1.3635312     -4.18891    1.0098203   0.90924809    4912.1546    183.01537 
 3426000   -5.5516933    1.3674261   -4.1842672    1.0096949   0.91184536    4912.1546    184.18384 
 3427000   -5.5359243    1.3609745   -4.1749498    1.1112857   0.90754325    4912.1546    185.23793 
 3428000    -5.526305    1.3395846   -4.1867204    1.0827037   0.89327971    4912.1546    185.41607 
 3429000     -5.55896     1.367654   -4.1913061   0.99659584   0.91199731    4912.1546    186.31432 
 3430000   -5.5516567      1.34434   -4.2073167   0.97635549   0.89645078    4912.1546    186.65999 
 3431000   -5.5755234    1.3574961   -4.2180273   0.91451191   0.90522372    4912.1546    186.92595 
 3432000   -5.5658968     1.331827   -4.2340698   0.93042118   0.88810667    4912.1546    187.21963 
 3433000   -5.5425865    1.3343453   -4.2082412    1.0299799   0.88978598    4912.1546    187.98871 
 3434000   -5.5394917    1.3456813   -4.1938104    1.0330179   0.89734519    4912.1546     188.2966 
 3435000   -5.5401166    1.3702657    -4.169851    1.0669748   0.91373888    4912.1546    189.12577 
 3436000    -5.532119     1.344616   -4.1875029    1.0429951   0.89663485    4912.1546    190.02829 
 3437000   -5.5570913    1.3452213     -4.21187    0.9760128   0.89703846    4912.1546    191.12745 
 3438000   -5.5754601     1.346615   -4.2288451   0.87962931   0.89796786    4912.1546    191.93562 
 3439000   -5.5583286      1.34672   -4.2116086    0.9931825   0.89803781    4912.1546    193.10831 
 3440000   -5.5598343     1.331212   -4.2286223   0.95948189   0.88769656    4912.1546    193.42572 
 3441000   -5.5543493    1.3525488   -4.2018005    0.9665783   0.90192468    4912.1546      193.989 
 3442000   -5.5472032     1.361382   -4.1858211     1.002439   0.90781498    4912.1546    194.30494 
 3443000   -5.5506416    1.3561946   -4.1944471   0.98365797   0.90435579    4912.1546    194.81419 
 3444000   -5.5536619    1.3595976   -4.1940643    1.0295988   0.90662502    4912.1546    195.35555 
 3445000   -5.5482421     1.339854   -4.2083881    1.0117117   0.89345935    4912.1546     195.8132 
 3446000   -5.5624606    1.3426873   -4.2197733    0.9706098   0.89534868    4912.1546    196.29966 
 3447000   -5.5547853    1.3348608   -4.2199245   0.97397693   0.89012972    4912.1546    197.06428 
 3448000   -5.5606195    1.3243516   -4.2362679   0.92823128   0.88312184    4912.1546    197.85246 
 3449000   -5.5658155     1.355354   -4.2104615    0.9640263   0.90379531    4912.1546    198.59561 
 3450000   -5.5658728    1.3411013   -4.2247715   0.91474398   0.89429112    4912.1546    199.48828 
 3451000   -5.5477378    1.3389392   -4.2087986   0.99276968   0.89284938    4912.1546    200.02301 
 3452000   -5.5528615    1.3510495    -4.201812    1.0030899   0.90092491    4912.1546    199.37415 
 3453000   -5.5381643    1.3462142   -4.1919501    1.0706699   0.89770056    4912.1546    199.38901 
 3454000    -5.539801     1.380241   -4.1595599    1.0738728   0.92039078    4912.1546    200.02546 
 3455000   -5.5365621    1.3457245   -4.1908376    1.0956029   0.89737401    4912.1546    200.81942 
 3456000    -5.529684    1.3208019   -4.2088821    1.0886512   0.88075478    4912.1546    201.79271 
 3457000    -5.552185    1.3472929   -4.2048921    1.0042179   0.89841987    4912.1546    203.01434 
 3458000   -5.5571732    1.3451343   -4.2120389   0.99228815   0.89698047    4912.1546    203.53078 
 3459000   -5.5615164    1.3584611   -4.2030553   0.94392248   0.90586719    4912.1546    203.89803 
 3460000   -5.5709319    1.3682661   -4.2026658   0.93802607   0.91240553    4912.1546    204.40153 
 3461000    -5.569975    1.3468555   -4.2231195   0.85545616   0.89812822    4912.1546     204.4266 
 3462000   -5.5780851    1.3675222   -4.2105629   0.90741365   0.91190943    4912.1546    204.63771 
 3463000   -5.5496956    1.3389448   -4.2107508    1.0010065   0.89285311    4912.1546    205.40698 
 3464000   -5.5884485    1.3659357   -4.2225128   0.84744701   0.91085151    4912.1546    206.22352 
 3465000   -5.5546854    1.3256051   -4.2290803   0.98785965   0.88395771    4912.1546    207.32286 
 3466000   -5.5676595    1.3773708   -4.1902886   0.95271909   0.91847682    4912.1546     208.3102 
 3467000   -5.5409989    1.3444368   -4.1965621    1.0441255   0.89651533    4912.1546    208.90425 
 3468000   -5.5576653    1.3650185   -4.1926468   0.96461678   0.91023991    4912.1546    209.54017 
 3469000   -5.5665191    1.3479624   -4.2185567   0.89934297   0.89886629    4912.1546    210.05769 
 3470000   -5.5598746    1.3104046     -4.24947   0.93799482   0.87382152    4912.1546    210.25358 
 3471000   -5.5676942    1.3350451   -4.2326491   0.89861854   0.89025264    4912.1546    210.85564 
 3472000    -5.551253    1.3367967   -4.2144562   0.98779276   0.89142069    4912.1546     211.3534 
 3473000   -5.5457658    1.3473891   -4.1983767    1.0323028   0.89848403    4912.1546    212.22619 
 3474000   -5.5601842    1.3644761   -4.1957081   0.94898537   0.90987817    4912.1546    212.33735 
 3475000   -5.5463761     1.365309   -4.1810671    1.0374354   0.91043364    4912.1546    213.33593 
 3476000    -5.529554    1.3661681   -4.1633859    1.1108271   0.91100648    4912.1546    214.03463 
 3477000   -5.5365885    1.3664446   -4.1701439    1.0846805   0.91119088    4912.1546    214.35192 
 3478000   -5.5467735    1.3590363   -4.1877373    1.0269796   0.90625073    4912.1546    214.75907 
 3479000   -5.5661732    1.3514801   -4.2146931    0.9323942   0.90121203    4912.1546    215.17776 
 3480000   -5.5466073     1.344904   -4.2017034    1.0006982   0.89682684    4912.1546    215.71474 
 3481000    -5.556715    1.3724772   -4.1842378    1.0048478   0.91521361    4912.1546    216.90505 
 3482000   -5.5319868    1.3627978    -4.169189    1.1112498   0.90875903    4912.1546    217.61208 
 3483000   -5.5314789    1.3668143   -4.1646646    1.1311538   0.91143737    4912.1546     218.0475 
 3484000   -5.5389019    1.3583733   -4.1805286    1.1074992   0.90580866    4912.1546    218.91182 
 3485000   -5.5410886    1.3485684   -4.1925202    1.0544269    0.8992704    4912.1546    219.35968 
 3486000   -5.5493593    1.3507588   -4.1986005    1.0255577   0.90073105    4912.1546    219.39556 
 3487000   -5.5484422     1.329452   -4.2189902    1.0463041   0.88652299    4912.1546    219.99935 
 3488000   -5.5663284    1.3541997   -4.2121288   0.91862318   0.90302554    4912.1546    220.47575 
 3489000   -5.5726385    1.3636566   -4.2089819   0.93366778   0.90933176    4912.1546    221.33748 
 3490000    -5.556469    1.3545515   -4.2019175    1.0047713   0.90326012    4912.1546    222.06904 
 3491000    -5.545519    1.3304639   -4.2150551     1.016647   0.88719775    4912.1546    222.37669 
 3492000   -5.5772698     1.332808   -4.2444619   0.85497523   0.88876083    4912.1546    222.84031 
 3493000   -5.5655666     1.320117   -4.2454496   0.95039487   0.88029808    4912.1546    223.46114 
 3494000   -5.5631758    1.3329685   -4.2302073   0.97338349   0.88886788    4912.1546    223.38494 
 3495000    -5.546139    1.3455377   -4.2006013   0.99054033   0.89724942    4912.1546    223.46075 
 3496000    -5.555438       1.3483    -4.207138    0.9885833   0.89909145    4912.1546    224.13951 
 3497000   -5.5271759    1.3498759      -4.1773    1.1054573   0.90014232    4912.1546    224.59904 
 3498000   -5.5592997    1.3759108    -4.183389   0.99343146   0.91750322    4912.1546    225.07329 
 3499000   -5.5584707    1.3556768   -4.2027939   0.95538815   0.90401053    4912.1546    225.45717 
 3500000   -5.5350104    1.3435523   -4.1914581    1.0923615   0.89592549    4912.1546    225.86043 
Loop time of 1534.87 on 2 procs for 400000 steps with 4000 atoms

Performance: 112582.596 tau/day, 260.608 timesteps/s
98.9% CPU use with 2 MPI tasks x no OpenMP threads

MPI task timing breakdown:
Section |  min time  |  avg time  |  max time  |%varavg| %total
---------------------------------------------------------------
Pair    | 1282.1     | 1282.6     | 1283.2     |   1.5 | 83.57
Neigh   | 152.89     | 153.42     | 153.95     |   4.3 | 10.00
Comm    | 71.398     | 72.456     | 73.514     |  12.4 |  4.72
Output  | 0.83817    | 0.84028    | 0.8424     |   0.2 |  0.05
Modify  | 21.136     | 21.143     | 21.15      |   0.2 |  1.38
Other   |            | 4.384      |            |       |  0.29

Nlocal:    2000 ave 2010 max 1990 min
Histogram: 1 0 0 0 0 0 0 0 0 1
Nghost:    5915.5 ave 5916 max 5915 min
Histogram: 1 0 0 0 0 0 0 0 0 1
Neighs:    185502 ave 187007 max 183996 min
Histogram: 1 0 0 0 0 0 0 0 0 1

Total # of neighbors = 371003
Ave neighs/atom = 92.7507
Neighbor list builds = 20000
Dangerous builds not checked
unfix     intnvt
unfix     rdfnvt
uncompute rdfnvt
uncompute msd
undump    idnvt

next      a
jump      in.melt temploop #it will again transfer the call to label temploop line
variable    a loop 11   #loop parameter defined
variable    temp equal 0.3+($a-1)*0.1   #temp value will increase at rate of 0.1 from 0.3 till 1.3
variable    temp equal 0.3+(8-1)*0.1   

log       log.lammps.npt.${temp}
log       log.lammps.npt.1
