thermo    ${nthermo}
thermo    1000
thermo_style custom step pe ke etotal press temp vol c_msd[4]
dump      idnvt all atom 1000 out.dump.nvt.${temp}.lammpstrj
dump      idnvt all atom 1000 out.dump.nvt.0.4.lammpstrj
restart   100000 restartnpt1.data restartnp2.data

fix       intnvt all nvt temp ${temp} ${temp} ${tdamp}
fix       intnvt all nvt temp 0.4 ${temp} ${tdamp}
fix       intnvt all nvt temp 0.4 0.4 ${tdamp}
fix       intnvt all nvt temp 0.4 0.4 1
run       400000
Neighbor list info ...
  update every 20 steps, delay 0 steps, check no
  max neighbors/atom: 2000, page size: 100000
  master list distance cutoff = 3.8
  ghost atom cutoff = 3.8
  binsize = 1.9, bins = 9 9 9
  2 neighbor lists, perpetual/occasional/extra = 1 1 0
  (1) pair lj/cut, perpetual
      attributes: half, newton on
      pair build: half/bin/atomonly/newton
      stencil: half/bin/3d/newton
      bin: standard
  (2) compute rdf, occasional, copy from (1)
      attributes: half, newton on
      pair build: copy
      stencil: none
      bin: none
Per MPI rank memory allocation (min/avg/max) = 5.127 | 5.127 | 5.127 Mbytes
Step PotEng KinEng TotEng Press Temp Volume c_msd[4] 
  600000   -7.6670242   0.59597969   -7.0710446    1.0393069   0.39741915    3878.9689            0 
  601000   -7.6691765   0.59848239   -7.0706941    1.0305325   0.39908803    3878.9689 0.0090423677 
  602000   -7.6901392   0.60191061   -7.0882286   0.91898669   0.40137408    3878.9689  0.011578207 
  603000   -7.6787287   0.58981566   -7.0889131   0.98223996   0.39330877    3878.9689  0.014105271 
  604000   -7.6757369   0.59065938   -7.0850775    1.0036372   0.39387139    3878.9689  0.012879676 
  605000    -7.673156   0.60081248   -7.0723435    1.0214268   0.40064181    3878.9689  0.012584992 
  606000   -7.6767845   0.61114503   -7.0656395    1.0109203    0.4075319    3878.9689  0.017897585 
  607000   -7.6802753   0.60374968   -7.0765256   0.97879275   0.40260043    3878.9689  0.015131348 
  608000   -7.6927392   0.60500045   -7.0877387   0.91392094   0.40343449    3878.9689  0.013782673 
  609000   -7.6938106   0.59583614   -7.0979745   0.90810319   0.39732342    3878.9689  0.012697807 
  610000    -7.695104   0.59103383   -7.1040702   0.89472873   0.39412108    3878.9689  0.012445324 
  611000   -7.6975224   0.59179076   -7.1057317   0.88593322   0.39462583    3878.9689  0.011956768 
  612000   -7.7007143   0.61293507   -7.0877792   0.86952557   0.40872556    3878.9689  0.013120826 
  613000   -7.6957199   0.61033859   -7.0853813   0.90559954   0.40699414    3878.9689  0.013045608 
  614000   -7.6777582   0.58921517    -7.088543   0.98404012   0.39290834    3878.9689  0.011911923 
  615000   -7.7059235   0.60107285   -7.1048507   0.83314319   0.40081543    3878.9689  0.010905951 
  616000   -7.7021127   0.59207836   -7.1100344   0.85029551   0.39481761    3878.9689  0.011288552 
  617000   -7.6970375   0.59888851    -7.098149   0.88404261   0.39935884    3878.9689  0.010767991 
  618000   -7.6866063   0.59743557   -7.0891707   0.93136847   0.39838998    3878.9689  0.010117045 
  619000    -7.676091   0.59566407   -7.0804269   0.98848213   0.39720868    3878.9689 0.0097625479 
  620000   -7.6806414   0.61591226   -7.0647292   0.98422425   0.41071085    3878.9689  0.011101163 
  621000    -7.683796   0.58910973   -7.0946862    0.9505687   0.39283803    3878.9689  0.010212562 
  622000    -7.696657   0.59867033   -7.0979867   0.88944462   0.39921336    3878.9689  0.010064933 
  623000   -7.6798812   0.60475156   -7.0751296   0.98331685   0.40326853    3878.9689   0.01065695 
  624000   -7.6811902   0.60987436   -7.0713159   0.97560007   0.40668458    3878.9689  0.010338598 
  625000   -7.6909421   0.61163584   -7.0793062   0.92273596   0.40785919    3878.9689  0.010658628 
  626000   -7.6905264   0.60784504   -7.0826814   0.91431215   0.40533136    3878.9689  0.010181536 
  627000    -7.678156   0.58745316   -7.0907029   0.97842502   0.39173337    3878.9689   0.01304696 
  628000   -7.6874046   0.60464006   -7.0827645   0.94234369   0.40319417    3878.9689  0.013289517 
  629000   -7.6781918   0.60223289   -7.0759589   0.99171604   0.40158899    3878.9689 0.0099195267 
  630000   -7.6760308   0.60704572   -7.0689851    1.0039056   0.40479834    3878.9689 0.0091140384 
  631000   -7.6872887    0.6036429   -7.0836458   0.93712915   0.40252923    3878.9689 0.0085390174 
  632000   -7.6921601   0.59908151   -7.0930786   0.90637791   0.39948754    3878.9689 0.0085726449 
  633000   -7.6865605   0.58786112   -7.0986993   0.93588187   0.39200541    3878.9689  0.010430641 
  634000   -7.6873114   0.60883251   -7.0784789    0.9481561   0.40598984    3878.9689 0.0096862351 
  635000   -7.6846024   0.60990158   -7.0747008   0.96061885   0.40670273    3878.9689 0.0091171585 
  636000   -7.6923841   0.61382699   -7.0785571   0.91122033   0.40932032    3878.9689 0.0085743788 
  637000   -7.6898463    0.6023282   -7.0875181   0.92219007   0.40165255    3878.9689 0.0090011631 
  638000   -7.7116285   0.60173253    -7.109896   0.80055453   0.40125534    3878.9689 0.0081455583 
  639000   -7.6935422   0.58209601   -7.1114462   0.89154743   0.38816105    3878.9689 0.0090933418 
  640000   -7.6996607   0.60629173    -7.093369   0.87423535   0.40429556    3878.9689 0.0088791669 
  641000   -7.6896239   0.60953888    -7.080085   0.93094603   0.40646087    3878.9689 0.0098787751 
  642000   -7.6931706   0.61117763    -7.081993   0.91278406   0.40755364    3878.9689    0.0100686 
  643000   -7.6966553   0.60456128    -7.092094   0.88376801   0.40314164    3878.9689  0.011258979 
  644000   -7.6943976   0.59855483   -7.0958428   0.88732814   0.39913634    3878.9689  0.011717327 
  645000   -7.6928606   0.59495285   -7.0979077   0.89746099   0.39673441    3878.9689   0.01494733 
  646000   -7.6857422   0.59923089   -7.0865114   0.94120195   0.39958715    3878.9689  0.013967281 
  647000   -7.6827506   0.60316135   -7.0795892   0.96473511   0.40220812    3878.9689  0.017972556 
  648000    -7.679645   0.59186268   -7.0877823   0.97346338   0.39467379    3878.9689  0.011789391 
  649000   -7.6872284   0.59757852   -7.0896499   0.93260243    0.3984853    3878.9689  0.014373703 
  650000   -7.6867496    0.5835886    -7.103161   0.92630295   0.38915636    3878.9689  0.013952204 
  651000   -7.6836395   0.58999725   -7.0936422   0.94520443   0.39342986    3878.9689  0.013958321 
  652000   -7.6901897   0.60709295   -7.0830968   0.91843682   0.40482984    3878.9689  0.012806884 
  653000   -7.6753148   0.58985887   -7.0854559   0.99207899   0.39333758    3878.9689  0.010190515 
  654000   -7.7061237   0.60994059   -7.0961831    0.8289887   0.40672874    3878.9689 0.0096347443 
  655000   -7.6910666   0.59015903   -7.1009076   0.89661134   0.39353774    3878.9689 0.0097432591 
  656000   -7.6967807   0.59026151   -7.1065192   0.86854852   0.39360607    3878.9689  0.010086715 
  657000   -7.6847147    0.5948371   -7.0898776   0.94755111   0.39665723    3878.9689  0.011129629 
  658000   -7.6834308   0.61130629   -7.0721245    0.9599572   0.40763944    3878.9689  0.012326026 
  659000   -7.6855628   0.60431974    -7.081243   0.93843845   0.40298058    3878.9689  0.012651995 
  660000   -7.6930988   0.59810512   -7.0949937    0.8995847   0.39883645    3878.9689  0.011855052 
  661000   -7.6977449    0.6004039    -7.097341   0.86869068   0.40036936    3878.9689  0.011521408 
  662000   -7.6913705   0.60482448   -7.0865461   0.91043963   0.40331715    3878.9689  0.012154266 
  663000   -7.6844311    0.6061977   -7.0782334   0.94720652   0.40423286    3878.9689  0.011379539 
  664000   -7.6945036   0.60292077   -7.0915828   0.89234286   0.40204769    3878.9689  0.010576574 
  665000   -7.6992643   0.59824501   -7.1010193   0.87064918   0.39892974    3878.9689  0.010896498 
  666000   -7.6948555    0.5993392   -7.0955163   0.88598823   0.39965938    3878.9689  0.011069549 
  667000   -7.6897763   0.60794496   -7.0818314   0.92928734   0.40539799    3878.9689  0.010681455 
  668000   -7.6859354   0.61025382   -7.0756816   0.94754406   0.40693761    3878.9689  0.011112319 
  669000   -7.6879571   0.60647543   -7.0814817   0.92909527   0.40441806    3878.9689  0.010895481 
  670000   -7.6848754   0.59325324   -7.0916222   0.93967466   0.39560106    3878.9689  0.012122935 
  671000   -7.6928093   0.59122154   -7.1015877   0.90625687   0.39424625    3878.9689  0.010480427 
  672000   -7.7062275   0.58736501   -7.1188625   0.81894907   0.39167459    3878.9689  0.010159486 
  673000   -7.6912853   0.60636392   -7.0849213   0.90937514    0.4043437    3878.9689  0.011231642 
  674000    -7.678249   0.59761689   -7.0806321   0.98152844   0.39851088    3878.9689  0.010556604 
  675000   -7.6756941   0.60184991   -7.0738442   0.98731474   0.40133361    3878.9689  0.010631749 
  676000   -7.6884965   0.60179111   -7.0867054   0.92971875    0.4012944    3878.9689  0.010018898 
  677000    -7.697566    0.5990248   -7.0985412   0.87035581   0.39944973    3878.9689 0.0098014558 
  678000   -7.6919827   0.60216022   -7.0898225   0.90323761   0.40154053    3878.9689 0.0097671682 
  679000   -7.6869126    0.6188286    -7.068084   0.94161362   0.41265557    3878.9689  0.010869607 
  680000   -7.6895889   0.60530456   -7.0842843   0.92480947   0.40363728    3878.9689 0.0095553338 
  681000   -7.6950047   0.60109911   -7.0939056   0.88744452   0.40083294    3878.9689  0.011283269 
  682000   -7.7010473   0.59983607   -7.1012113   0.85852378   0.39999071    3878.9689  0.010764273 
  683000   -7.7123757   0.59903014   -7.1133455   0.79579267   0.39945329    3878.9689  0.012272039 
  684000   -7.7070001   0.59860212    -7.108398   0.81487545   0.39916787    3878.9689  0.012625886 
  685000   -7.6998959   0.60937531   -7.0905206   0.86598268   0.40635179    3878.9689  0.010544155 
  686000   -7.6959288   0.60727345   -7.0886553   0.89360577   0.40495021    3878.9689 0.0098633947 
  687000   -7.6906524   0.60321278   -7.0874396   0.91179676   0.40224242    3878.9689  0.010382681 
  688000    -7.705224   0.59603349   -7.1091905   0.82989131   0.39745502    3878.9689 0.0092315633 
  689000   -7.7099466   0.60093053   -7.1090161   0.79941316   0.40072053    3878.9689 0.0089775519 
  690000   -7.6894693   0.59047221   -7.0989971   0.90555355   0.39374658    3878.9689  0.010232917 
  691000   -7.6908724   0.58992097   -7.1009514   0.90421957   0.39337899    3878.9689 0.0099807219 
  692000   -7.7016403   0.60545869   -7.0961816   0.85721795   0.40374006    3878.9689 0.0089666629 
  693000   -7.6888382   0.60106187   -7.0877763   0.92054366   0.40080811    3878.9689 0.0095333431 
  694000   -7.6856997   0.61448831   -7.0712114   0.95233234   0.40976131    3878.9689 0.0093242895 
  695000   -7.6921221   0.61802225   -7.0740998   0.91591356   0.41211787    3878.9689  0.009157024 
  696000   -7.6947073    0.5957947   -7.0989126   0.88866374   0.39729579    3878.9689 0.0094469945 
  697000   -7.6993537   0.60015865   -7.0991951   0.86498642   0.40020582    3878.9689 0.0092525113 
  698000   -7.6928683   0.60292339   -7.0899449   0.90037709   0.40204944    3878.9689  0.009344194 
  699000   -7.6835371   0.59688444   -7.0866527   0.94971751   0.39802247    3878.9689   0.00925606 
  700000    -7.702987   0.60855513   -7.0944319   0.84487197   0.40580487    3878.9689 0.0094062667 
  701000   -7.7063133   0.60071786   -7.1055955   0.83157037   0.40057872    3878.9689 0.0092171728 
  702000   -7.6943605   0.59173867   -7.1026218   0.88761044   0.39459109    3878.9689  0.010058788 
  703000    -7.685222   0.60677076   -7.0784512   0.94407343   0.40461499    3878.9689  0.010112418 
  704000   -7.6997807   0.62311534   -7.0766653    0.8749689    0.4155141    3878.9689 0.0094570901 
  705000   -7.6986477   0.60748212   -7.0911656   0.86936533   0.40508935    3878.9689 0.0099776583 
  706000   -7.6958476   0.59772507   -7.0981225   0.87159946   0.39858303    3878.9689 0.0094495774 
  707000   -7.6834647   0.58865155   -7.0948132   0.94385473    0.3925325    3878.9689 0.0093460286 
  708000   -7.6842029   0.60525674   -7.0789462   0.94221704   0.40360539    3878.9689 0.0096309277 
  709000   -7.6846155   0.59872365   -7.0858919   0.94371846   0.39924891    3878.9689   0.01018894 
  710000   -7.6902208   0.60141765   -7.0888031   0.91648509   0.40104536    3878.9689 0.0089819253 
  711000   -7.7061632   0.58925563   -7.1169075   0.82109778   0.39293532    3878.9689   0.00850449 
  712000   -7.6949559   0.60194006   -7.0930159   0.89603719   0.40139372    3878.9689 0.0089959594 
  713000   -7.6844511   0.59465452   -7.0897966   0.95297183   0.39653548    3878.9689   0.00909444 
  714000   -7.6831585   0.59967269   -7.0834858   0.94799388   0.39988177    3878.9689 0.0088983587 
  715000   -7.6947982   0.59520094   -7.0995972   0.88613948   0.39689985    3878.9689 0.0086045721 
  716000   -7.7003535   0.59737453   -7.1029789   0.85469099   0.39834927    3878.9689 0.0087381622 
  717000   -7.6902478   0.60065089    -7.089597   0.90839314   0.40053406    3878.9689 0.0089117508 
  718000   -7.6906381   0.60442998   -7.0862081   0.92023914   0.40305408    3878.9689 0.0088779248 
  719000   -7.6905248   0.59367681    -7.096848    0.9070359   0.39588351    3878.9689 0.0088755763 
  720000   -7.7025287   0.59138972   -7.1111389   0.83771989    0.3943584    3878.9689 0.0087619755 
  721000    -7.693961   0.57958918   -7.1143718   0.88564691   0.38648941    3878.9689  0.014454257 
  722000   -7.6835357   0.59339731   -7.0901383   0.94281174   0.39569713    3878.9689  0.013143037 
  723000   -7.6768319   0.59730512   -7.0795267   0.98820651   0.39830299    3878.9689  0.014660753 
  724000   -7.6846416   0.59173107   -7.0929105   0.93943398   0.39458603    3878.9689  0.008709289 
  725000   -7.6971159   0.59333998   -7.1037759   0.87102164    0.3956589    3878.9689 0.0083011766 
  726000   -7.6875652   0.59761935   -7.0899459   0.93280543   0.39851253    3878.9689  0.010638366 
  727000    -7.692774   0.61228755   -7.0804865   0.89901698   0.40829377    3878.9689 0.0090417311 
  728000   -7.6874698   0.60548467   -7.0819851   0.93078136   0.40375739    3878.9689 0.0085800297 
  729000   -7.6907457   0.59153481   -7.0992109   0.90504807   0.39445515    3878.9689 0.0084982449 
  730000   -7.6993863   0.59951703   -7.0998693   0.87038966   0.39977797    3878.9689 0.0087408317 
  731000   -7.6789945   0.60282968   -7.0761648   0.98120003   0.40198695    3878.9689 0.0088914112 
  732000   -7.6735115   0.59917864   -7.0743328    1.0000114   0.39955231    3878.9689 0.0088579299 
  733000   -7.6925618   0.59745009   -7.0951117   0.89397141   0.39839966    3878.9689 0.0094555245 
  734000   -7.7034568   0.59899302   -7.1044638   0.83884663   0.39942854    3878.9689 0.0084833105 
  735000   -7.7014308    0.5947204   -7.1067104   0.85293176   0.39657941    3878.9689 0.0083308332 
  736000   -7.7014903   0.60424823   -7.0972421   0.84994656   0.40293289    3878.9689 0.0087882532 
  737000   -7.6902243    0.6071581   -7.0830662   0.91597339   0.40487329    3878.9689 0.0086716141 
  738000   -7.6918805   0.60158673   -7.0902937    0.9011232   0.40115811    3878.9689 0.0081842582 
  739000   -7.7022685   0.58338326   -7.1188853   0.82829392   0.38901943    3878.9689 0.0085492198 
  740000    -7.704946   0.60638265   -7.0985633   0.83791827   0.40435619    3878.9689 0.0083740722 
  741000    -7.692716   0.60187921   -7.0908367    0.9065716   0.40135315    3878.9689  0.009119005 
  742000    -7.691781    0.6103696   -7.0814114   0.91581882   0.40701482    3878.9689 0.0081158269 
  743000   -7.6752409   0.60123566   -7.0740053    1.0019481     0.400924    3878.9689 0.0087216451 
  744000   -7.6778676   0.59157726   -7.0862904   0.96901585   0.39448346    3878.9689 0.0087086577 
  745000   -7.6961891   0.60096669   -7.0952224   0.88227414   0.40074465    3878.9689 0.0083170201 
  746000   -7.6991705   0.60514552    -7.094025   0.86064563   0.40353123    3878.9689 0.0089727272 
  747000   -7.6870718   0.60547801   -7.0815938   0.93982629   0.40375294    3878.9689 0.0089125192 
  748000   -7.6852733   0.61355888   -7.0717144   0.95582393   0.40914154    3878.9689 0.0084565391 
  749000    -7.707248   0.60978695   -7.0974611   0.82872111   0.40662629    3878.9689  0.012182485 
  750000   -7.6949116   0.59710357    -7.097808   0.88634534   0.39816859    3878.9689  0.011290237 
  751000   -7.7003741   0.59198129   -7.1083928   0.85240902   0.39475288    3878.9689 0.0088468271 
  752000   -7.6917776   0.59421096   -7.0975667   0.90492579    0.3962397    3878.9689  0.011012061 
  753000   -7.6817666   0.59566844   -7.0860981   0.95446002    0.3972116    3878.9689  0.016593425 
  754000   -7.6882916   0.60403575   -7.0842558   0.92417945    0.4027912    3878.9689  0.018969332 
  755000   -7.6765668   0.58803765   -7.0885292    0.9848892   0.39212313    3878.9689  0.020186952 
  756000    -7.687287    0.5896463   -7.0976407    0.9193825   0.39319583    3878.9689  0.021440693 
  757000   -7.6892411   0.59430937   -7.0949318    0.9084397   0.39630532    3878.9689  0.019043595 
  758000   -7.6836438   0.59908656   -7.0845572   0.95089521   0.39949091    3878.9689  0.018509451 
  759000   -7.6956613   0.60294457   -7.0927168   0.88852768   0.40206356    3878.9689  0.016096161 
  760000   -7.7053176   0.59994947   -7.1053681   0.83052879   0.40006633    3878.9689   0.01876409 
  761000   -7.7016717   0.60789257   -7.0937791   0.85472283   0.40536305    3878.9689  0.021170462 
  762000   -7.6917786   0.60216087   -7.0896177   0.91424807   0.40154097    3878.9689  0.022056215 
  763000   -7.6865634   0.61542107   -7.0711423   0.94731161   0.41038331    3878.9689  0.019842299 
  764000   -7.6981184   0.59686782   -7.1012506   0.86527158   0.39801138    3878.9689  0.020443669 
  765000   -7.7016272   0.59674665   -7.1048805   0.84734432   0.39793058    3878.9689  0.026324115 
  766000   -7.6966979   0.58261709   -7.1140808   0.87118194   0.38850852    3878.9689  0.032492373 
  767000   -7.6789507   0.57903445   -7.0999163   0.96348252    0.3861195    3878.9689  0.028796263 
  768000   -7.6916743   0.60464987   -7.0870244   0.91245857   0.40320072    3878.9689  0.025829824 
  769000   -7.6864128    0.5946998   -7.0917129     0.935775   0.39656568    3878.9689  0.023663192 
  770000   -7.6997227   0.59393178   -7.1057909   0.85570334   0.39605353    3878.9689  0.024194869 
  771000    -7.698928   0.59332041   -7.1056076   0.86444662   0.39564585    3878.9689  0.033577533 
  772000   -7.6916535   0.59976173   -7.0918918   0.90314552   0.39994114    3878.9689  0.024507226 
  773000   -7.6929392   0.60591638   -7.0870228   0.89762525   0.40404526    3878.9689  0.029954172 
  774000    -7.684648   0.59761043   -7.0870376   0.94137825   0.39850658    3878.9689  0.021088876 
  775000   -7.6838425   0.59590181   -7.0879407   0.94561765   0.39736722    3878.9689  0.016541441 
  776000   -7.7003295   0.60033204   -7.0999975   0.85149079   0.40032144    3878.9689  0.015676472 
  777000    -7.698118    0.5950848   -7.1030332   0.87452487   0.39682241    3878.9689  0.022836871 
  778000   -7.6886048   0.59687692   -7.0917279   0.92042517   0.39801745    3878.9689  0.021977449 
  779000   -7.6847223   0.60458451   -7.0801378   0.94763178   0.40315713    3878.9689  0.014807617 
  780000   -7.6729044    0.6035507   -7.0693537    1.0059407   0.40246775    3878.9689   0.01009463 
  781000   -7.6840489   0.59224868   -7.0918002   0.93977562   0.39493119    3878.9689  0.010347069 
  782000   -7.6932082   0.59147686   -7.1017313   0.88911668   0.39441651    3878.9689  0.010379507 
  783000   -7.6931373   0.58204411   -7.1110932   0.87814149   0.38812644    3878.9689  0.010645436 
  784000   -7.6994783   0.58758478   -7.1118936   0.86269331   0.39182114    3878.9689 0.0096863191 
  785000   -7.6985477   0.60685733   -7.0916903   0.86840922   0.40467272    3878.9689 0.0083704841 
  786000   -7.6803088   0.60181892   -7.0784898   0.97242024   0.40131294    3878.9689 0.0087080229 
  787000   -7.6966377   0.60761801   -7.0890197   0.88611544   0.40517997    3878.9689 0.0083938198 
  788000    -7.688524   0.58927262   -7.0992513   0.92150926   0.39294665    3878.9689  0.008534846 
  789000   -7.6935142   0.59382018    -7.099694   0.88865691   0.39597912    3878.9689 0.0088160271 
  790000   -7.6920334   0.60696629   -7.0850671   0.90390916   0.40474538    3878.9689 0.0096056875 
  791000   -7.6861192   0.59799946   -7.0881198   0.93507884     0.398766    3878.9689 0.0084467907 
  792000   -7.6968098   0.60671719   -7.0900926   0.87769563   0.40457927    3878.9689 0.0086135331 
  793000    -7.703484   0.59424993   -7.1092341   0.84418774   0.39626569    3878.9689 0.0086678171 
  794000   -7.6891775   0.59696474   -7.0922128   0.92290386   0.39807601    3878.9689  0.008575046 
  795000   -7.6880708   0.59731881    -7.090752   0.91326361   0.39831212    3878.9689 0.0089771745 
  796000   -7.6913974   0.60476823   -7.0866292   0.91428713   0.40327964    3878.9689 0.0091179589 
  797000   -7.6883473   0.59409428    -7.094253   0.92524853   0.39616189    3878.9689 0.0086993322 
  798000   -7.6961789   0.59462248   -7.1015565   0.88551944   0.39651412    3878.9689 0.0098096308 
  799000   -7.6972975   0.58053264   -7.1167649   0.87473205   0.38711854    3878.9689   0.00890412 
  800000   -7.6964595   0.60867965   -7.0877798   0.88202609    0.4058879    3878.9689 0.0089261796 
  801000   -7.6921361   0.61317568   -7.0789604   0.91721033   0.40888601    3878.9689 0.0089743674 
  802000   -7.7029503    0.6100283    -7.092922   0.84894286   0.40678723    3878.9689 0.0086894448 
  803000   -7.6958548   0.59842302   -7.0974318   0.87560598   0.39904844    3878.9689  0.010200646 
  804000   -7.6898833   0.60110091   -7.0887824    0.9111027   0.40083415    3878.9689 0.0082367893 
  805000   -7.6802044   0.60949628   -7.0707082   0.97654806   0.40643246    3878.9689  0.010413568 
  806000   -7.6800767   0.60360758   -7.0764691   0.97203506   0.40250568    3878.9689 0.0085795297 
  807000   -7.6998721   0.60883608   -7.0910361   0.86837279   0.40599222    3878.9689 0.0084116688 
  808000   -7.6965205   0.59807647    -7.098444   0.88151459   0.39881735    3878.9689 0.0089334326 
  809000    -7.690511   0.58700262   -7.1035083   0.90519895   0.39143294    3878.9689 0.0089121653 
  810000    -7.690219   0.59832181   -7.0918972   0.91631033   0.39898096    3878.9689  0.010389731 
  811000    -7.688868   0.59637257   -7.0924955   0.92477818   0.39768113    3878.9689 0.0086981979 
  812000   -7.6955528   0.59023788   -7.1053149   0.87044328   0.39359032    3878.9689  0.008146383 
  813000   -7.6893514   0.59130534   -7.0980461   0.91217563   0.39430213    3878.9689 0.0085679555 
  814000   -7.6901605   0.60680816   -7.0833524   0.91432537   0.40463993    3878.9689  0.008541222 
  815000    -7.689972   0.60804857   -7.0819234    0.9212539   0.40546708    3878.9689  0.010312568 
  816000   -7.7016001    0.5965422   -7.1050579   0.85515437   0.39779425    3878.9689 0.0090858554 
  817000   -7.7012763   0.59440092   -7.1068754   0.85257954   0.39636637    3878.9689 0.0088225315 
  818000   -7.6869056   0.59371643   -7.0931891   0.92978382   0.39590993    3878.9689 0.0092570182 
  819000    -7.686866   0.60255748   -7.0843086   0.93710241   0.40180544    3878.9689  0.008695511 
  820000   -7.6912175   0.60261423   -7.0886032   0.91694448   0.40184328    3878.9689 0.0091179498 
  821000   -7.6923902    0.5921446   -7.1002456   0.89676665   0.39486178    3878.9689 0.0092149011 
  822000   -7.6931765   0.60479121   -7.0883853   0.89229498   0.40329496    3878.9689 0.0098806512 
  823000   -7.6934435   0.61577579   -7.0776677   0.89743869   0.41061985    3878.9689  0.010332201 
  824000   -7.6885751   0.60682227   -7.0817528   0.92868772   0.40464934    3878.9689  0.009834712 
  825000   -7.6929703   0.60525464   -7.0877156   0.90800361   0.40360399    3878.9689  0.011284386 
  826000   -7.7034148   0.59804639   -7.1053685   0.84214374   0.39879729    3878.9689  0.011394116 
  827000   -7.7071229   0.59828679   -7.1088361   0.82222248    0.3989576    3878.9689   0.01016326 
  828000   -7.6919271   0.59672418   -7.0952029   0.90000594    0.3979156    3878.9689  0.012622901 
  829000   -7.6950835   0.60938505   -7.0856984   0.90315489   0.40635829    3878.9689  0.012635066 
  830000   -7.6819419   0.60011451   -7.0818274   0.95633399   0.40017639    3878.9689 0.0099721988 
  831000    -7.687789   0.60875135   -7.0790376   0.93254596   0.40593572    3878.9689  0.011047308 
  832000   -7.6944538   0.60004671   -7.0944071   0.89261737   0.40013117    3878.9689  0.010966608 
  833000   -7.6930933   0.59988831    -7.093205   0.90075734   0.40002554    3878.9689 0.0098406847 
  834000   -7.6907122   0.60105368   -7.0896585   0.91761273   0.40080265    3878.9689  0.010494364 
  835000   -7.6834028   0.60444931   -7.0789534   0.95928748   0.40306697    3878.9689  0.015492637 
  836000   -7.6947928   0.60229725   -7.0924955     0.897069   0.40163191    3878.9689  0.015470742 
  837000   -7.6981299   0.59397671   -7.1041532   0.86497183   0.39608349    3878.9689  0.015341679 
  838000   -7.6937149   0.60243546   -7.0912794   0.89143268   0.40172407    3878.9689  0.013263741 
  839000   -7.6847824   0.60349442    -7.081288   0.94010756   0.40243022    3878.9689  0.010301703 
  840000   -7.6952223   0.60519614   -7.0900262   0.88432498   0.40356498    3878.9689   0.01120287 
  841000   -7.6883473   0.58148785   -7.1068594   0.92027113   0.38775551    3878.9689  0.011113404 
  842000    -7.699344   0.58778074   -7.1115632   0.84591403   0.39195182    3878.9689  0.014761184 
  843000   -7.6926912   0.61202723    -7.080664   0.90357983   0.40812018    3878.9689  0.012287182 
  844000   -7.6864769   0.61156754   -7.0749094   0.94202595   0.40781365    3878.9689  0.010442973 
  845000   -7.6905905   0.61348989   -7.0771006   0.92760894   0.40909553    3878.9689  0.010806622 
  846000   -7.6930637   0.59898462   -7.0940791   0.89551316   0.39942293    3878.9689  0.013244907 
  847000    -7.682779   0.58682092   -7.0959581   0.94981787   0.39131177    3878.9689  0.014800259 
  848000   -7.6899538   0.59439909   -7.0955547   0.91339014   0.39636515    3878.9689  0.015163699 
  849000   -7.6848621    0.6106244   -7.0742377   0.94768413   0.40718473    3878.9689  0.018648504 
  850000   -7.6843608   0.60870214   -7.0756587   0.94951608    0.4059029    3878.9689  0.017376157 
  851000   -7.6950095   0.61370135   -7.0813082   0.89912618   0.40923654    3878.9689  0.016938536 
  852000   -7.6925507   0.60250089   -7.0900498   0.90640324    0.4017677    3878.9689  0.015950903 
  853000    -7.698744   0.59634716   -7.1023969   0.86471771   0.39766419    3878.9689  0.017307666 
  854000    -7.696847    0.5824726   -7.1143744   0.85999321   0.38841217    3878.9689  0.016268055 
  855000   -7.6948951   0.59057463   -7.1043204   0.88162159   0.39381487    3878.9689  0.014316811 
  856000   -7.6915552    0.5990431   -7.0925122   0.90142692   0.39946193    3878.9689  0.017739895 
  857000   -7.6874303   0.60435851   -7.0830718   0.93445442   0.40300643    3878.9689  0.018542896 
  858000   -7.6890109   0.61170678   -7.0773042   0.93327068    0.4079065    3878.9689  0.021784196 
  859000   -7.6913574   0.60028147   -7.0910759   0.90658574   0.40028772    3878.9689  0.024225055 
  860000    -7.693914   0.59505878   -7.0988552   0.88700084   0.39680505    3878.9689  0.018238815 
  861000   -7.6987383   0.60746855   -7.0912698   0.88086852   0.40508031    3878.9689  0.013743197 
  862000   -7.6861986     0.605005   -7.0811936   0.94160138   0.40343752    3878.9689   0.01335932 
  863000   -7.6946829    0.6048204   -7.0898625   0.88857275   0.40331443    3878.9689  0.010059281 
  864000   -7.7047569   0.59812754   -7.1066294   0.83232772   0.39885141    3878.9689  0.013776466 
  865000   -7.6926685   0.59004792   -7.1026206   0.88759656   0.39346365    3878.9689  0.015994119 
  866000   -7.6908454   0.60937521   -7.0814701   0.90792724   0.40635173    3878.9689  0.012096105 
  867000   -7.6868119     0.600176   -7.0866358   0.93752443   0.40021739    3878.9689  0.014132943 
  868000   -7.7043757   0.59617484   -7.1082009   0.83830125   0.39754928    3878.9689  0.011276414 
  869000   -7.7006713   0.60223475   -7.0984366   0.85681873   0.40159023    3878.9689  0.012670601 
  870000   -7.6970639   0.60733298   -7.0897309   0.87495281    0.4049899    3878.9689  0.010569157 
  871000   -7.6845214   0.60220512   -7.0823163   0.93911319   0.40157047    3878.9689  0.010685294 
  872000   -7.6833728   0.61934653   -7.0640263   0.96661554   0.41300094    3878.9689   0.00956545 
  873000   -7.6923136   0.59240721   -7.0999063   0.89304847    0.3950369    3878.9689  0.010386037 
  874000   -7.6883653   0.59383063   -7.0945347   0.92274172   0.39598608    3878.9689 0.0090327996 
  875000   -7.6911369   0.59840251   -7.0927344   0.90797536   0.39903476    3878.9689 0.0089352802 
  876000   -7.6884523   0.61684982   -7.0716025   0.93420567   0.41133605    3878.9689 0.0089647314 
  877000   -7.6842528   0.60525055   -7.0790022   0.94703204   0.40360126    3878.9689 0.0095480755 
  878000   -7.6880445   0.60304134   -7.0850032   0.92879176   0.40212809    3878.9689  0.008312652 
  879000   -7.6909516   0.59004263    -7.100909     0.898549   0.39346012    3878.9689 0.0088746276 
  880000    -7.697719   0.59326878   -7.1044502   0.86646971   0.39561142    3878.9689 0.0086230319 
  881000   -7.6954975   0.60551852    -7.089979   0.89534093   0.40377996    3878.9689 0.0088547612 
  882000   -7.6950343   0.60346957   -7.0915647   0.89138302   0.40241365    3878.9689 0.0090669477 
  883000   -7.7009341   0.59486274   -7.1060714   0.85056474   0.39667433    3878.9689 0.0083845212 
  884000   -7.7005113   0.59774625   -7.1027651   0.85088557   0.39859715    3878.9689 0.0093396186 
  885000   -7.6851137   0.60359992   -7.0815138   0.93539702   0.40250057    3878.9689 0.0099858462 
  886000   -7.6779567   0.59901771    -7.078939   0.98473225     0.399445    3878.9689 0.0087179979 
  887000   -7.6947452   0.60758236   -7.0871629   0.89269028    0.4051562    3878.9689 0.0094245048 
  888000   -7.6858753   0.58887322    -7.097002   0.92588329   0.39268031    3878.9689 0.0096084374 
  889000   -7.7019608   0.59861422   -7.1033466   0.85408216   0.39917594    3878.9689 0.0098247851 
  890000   -7.6826413   0.59129475   -7.0913466   0.94563587   0.39429508    3878.9689 0.0090094522 
  891000   -7.6969271   0.61215155   -7.0847756   0.89288128   0.40820308    3878.9689 0.0097975555 
  892000   -7.6798312   0.60179849   -7.0780327   0.97890908   0.40129932    3878.9689 0.0091208307 
  893000   -7.6831808   0.59031111   -7.0928697   0.94499821   0.39363915    3878.9689 0.0089980028 
  894000   -7.6994233   0.59709385   -7.1023295   0.85822955    0.3981621    3878.9689 0.0086186028 
  895000   -7.7059533   0.59858441   -7.1073689   0.82091394   0.39915607    3878.9689 0.0085657189 
  896000   -7.6961097   0.58219098   -7.1139187    0.8760702   0.38822438    3878.9689  0.010831107 
  897000   -7.6925554   0.59571977   -7.0968356     0.891794   0.39724582    3878.9689 0.0088485938 
  898000   -7.6953526   0.60633048   -7.0890222   0.88979966    0.4043214    3878.9689 0.0091567307 
  899000   -7.6938673   0.60407328    -7.089794   0.89484084   0.40281622    3878.9689 0.0088047456 
  900000   -7.6992563    0.6052025   -7.0940538   0.86542156   0.40356922    3878.9689 0.0089341718 
  901000    -7.698207   0.60943896    -7.088768   0.86508094   0.40639424    3878.9689 0.0086004595 
  902000   -7.6847646   0.61200471   -7.0727599   0.95319768   0.40810517    3878.9689 0.0085287847 
  903000   -7.6777269   0.59627905   -7.0814479   0.97897252   0.39761877    3878.9689 0.0088243871 
  904000   -7.6831038   0.59439879    -7.088705   0.94773049   0.39636495    3878.9689 0.0094823753 
  905000   -7.6993206   0.58781834   -7.1115023   0.86278755   0.39197689    3878.9689 0.0090255951 
  906000   -7.7045318   0.59151412   -7.1130177   0.83423137   0.39444135    3878.9689 0.0087749445 
  907000   -7.6932978   0.59144044   -7.1018574   0.89049336   0.39439222    3878.9689 0.0096438563 
  908000    -7.694144    0.5990447   -7.0950993   0.89478038     0.399463    3878.9689   0.01348517 
  909000   -7.6906335   0.60179559   -7.0888379   0.91134045   0.40129739    3878.9689 0.0091134047 
  910000   -7.6910526   0.58586145   -7.1051911   0.89737839   0.39067197    3878.9689  0.008824811 
  911000   -7.6964724   0.59570866   -7.1007637   0.86868084   0.39723842    3878.9689  0.009535004 
  912000   -7.6987564   0.60054909   -7.0982073   0.86098526   0.40046618    3878.9689  0.011534087 
  913000   -7.6800671   0.59375082   -7.0863163   0.97161876   0.39593286    3878.9689 0.0098799263 
  914000   -7.6933072   0.61429952   -7.0790077   0.91264321   0.40963542    3878.9689   0.00972616 
  915000   -7.6898786    0.5994849   -7.0903937   0.92352281   0.39975654    3878.9689  0.010720809 
  916000   -7.7059461   0.60166099   -7.1042851   0.82537038   0.40120763    3878.9689  0.010788455 
  917000   -7.6841682    0.5904175   -7.0937507   0.94238996   0.39371009    3878.9689  0.011116868 
  918000   -7.6838536   0.59910579   -7.0847478    0.9529811   0.39950373    3878.9689  0.010691679 
  919000   -7.6802565   0.60923274   -7.0710237   0.97424481   0.40625672    3878.9689  0.013450534 
  920000    -7.704252   0.60835331   -7.0958987   0.83940357   0.40567029    3878.9689  0.014859118 
  921000   -7.7016653    0.5970298   -7.1046354   0.86224002    0.3981194    3878.9689   0.01251302 
  922000   -7.6903209   0.59952506   -7.0907958   0.91650048   0.39978332    3878.9689  0.012667248 
  923000   -7.6921262   0.60572375   -7.0864024   0.90541087   0.40391681    3878.9689   0.01364165 
  924000   -7.7000077   0.59848624   -7.1015214   0.86607942    0.3990906    3878.9689  0.014832493 
  925000   -7.7025079    0.5916305   -7.1108774    0.8370751   0.39451896    3878.9689  0.020673104 
  926000   -7.6867374   0.58179781   -7.1049396   0.92899071    0.3879622    3878.9689  0.021985676 
  927000   -7.6861899   0.59947596   -7.0867139   0.93166757   0.39975058    3878.9689  0.024737225 
  928000   -7.6894354   0.60677007   -7.0826654   0.92398546   0.40461453    3878.9689  0.024578485 
  929000   -7.7084958   0.59682131   -7.1116745   0.80187194   0.39798037    3878.9689  0.027994361 
  930000   -7.7022325   0.59262586   -7.1096066   0.84359971    0.3951827    3878.9689  0.027713333 
  931000    -7.674972   0.59231694    -7.082655   0.99393558   0.39497671    3878.9689  0.030301864 
  932000   -7.6894011   0.60393331   -7.0854678   0.91945346   0.40272288    3878.9689  0.034030389 
  933000   -7.6927695   0.59680715   -7.0959623   0.89461831   0.39797093    3878.9689   0.03325618 
  934000   -7.6989512   0.60154003   -7.0974111   0.87084414   0.40112697    3878.9689  0.025201942 
  935000   -7.6902231   0.59927969   -7.0909434   0.91300406    0.3996197    3878.9689  0.027959351 
  936000   -7.6974233   0.61833455   -7.0790888   0.87747948   0.41232612    3878.9689  0.028168079 
  937000   -7.6910265   0.60906764   -7.0819588   0.91485977   0.40614663    3878.9689  0.029349031 
  938000   -7.6928734   0.59336204   -7.0995114   0.88839256   0.39567361    3878.9689  0.022575311 
  939000   -7.7012218   0.60257586   -7.0986459   0.85337004    0.4018177    3878.9689  0.026867597 
  940000   -7.6829436   0.60105286   -7.0818907   0.95219797   0.40080211    3878.9689  0.023490994 
  941000   -7.6847879   0.61332281   -7.0714651   0.95416564   0.40898412    3878.9689  0.029115042 
  942000    -7.695851   0.59786344   -7.0979876   0.88396996   0.39867529    3878.9689   0.02228066 
  943000   -7.6978502   0.59908692   -7.0987632   0.87462158   0.39949115    3878.9689  0.027003829 
  944000   -7.6907158   0.59301711   -7.0976987   0.90761965    0.3954436    3878.9689  0.023682688 
  945000    -7.682827   0.59840407    -7.084423   0.95242428   0.39903581    3878.9689  0.027914576 
  946000   -7.6827623    0.6062565   -7.0765058   0.96906876   0.40427207    3878.9689  0.026811793 
  947000   -7.6883042   0.59956205   -7.0887422   0.91604892   0.39980798    3878.9689  0.023809917 
  948000   -7.6990093   0.60075223   -7.0982571   0.86343126   0.40060163    3878.9689  0.017224313 
  949000   -7.7022181   0.59385869   -7.1083594   0.84148046    0.3960048    3878.9689  0.019794764 
  950000   -7.7025909   0.58933573   -7.1132552   0.83834248   0.39298874    3878.9689  0.020692735 
  951000   -7.6888372   0.59574139   -7.0930958   0.91864477   0.39726024    3878.9689  0.023232144 
  952000   -7.6836359   0.59440913   -7.0892267   0.95190421   0.39637184    3878.9689  0.022639185 
  953000   -7.6962954   0.61127399   -7.0850215    0.8878862   0.40761789    3878.9689  0.024399141 
  954000   -7.6883494   0.59753223   -7.0908172   0.92818058   0.39845443    3878.9689  0.024377333 
  955000     -7.70081   0.60902537   -7.0917846   0.85260595   0.40611844    3878.9689  0.026594289 
  956000   -7.6927457   0.59579952   -7.0969461   0.90090504     0.397299    3878.9689  0.028115584 
  957000   -7.6965273   0.59990183   -7.0966255   0.87472112   0.40003456    3878.9689  0.026271982 
  958000    -7.697233    0.6029063   -7.0943267   0.87168508   0.40203804    3878.9689  0.030074765 
  959000   -7.6943339   0.62082566   -7.0735082   0.90773919   0.41398727    3878.9689  0.020621759 
  960000   -7.6817279   0.60890416   -7.0728237   0.97290296   0.40603762    3878.9689   0.02147001 
  961000   -7.6896421   0.60883945   -7.0808027    0.9192591   0.40599447    3878.9689  0.026306857 
  962000   -7.6859723   0.59931956   -7.0866528   0.94032271   0.39964628    3878.9689  0.023835799 
  963000   -7.6930412   0.59468225    -7.098359   0.89384802   0.39655398    3878.9689  0.018595131 
  964000   -7.7001098   0.59155566   -7.1085542   0.85540088   0.39446906    3878.9689  0.019393307 
  965000   -7.7026426   0.60486996   -7.0977727   0.85084468   0.40334748    3878.9689  0.024753699 
  966000   -7.6936514   0.61264902   -7.0810024   0.90865466   0.40853481    3878.9689  0.020868534 
  967000   -7.7011591   0.60855725   -7.0926019   0.85963075   0.40580628    3878.9689  0.018777378 
  968000   -7.6901375   0.59200528   -7.0981322   0.90860511   0.39476888    3878.9689   0.01452657 
  969000   -7.6863726   0.59655193   -7.0898207   0.93801533   0.39780074    3878.9689  0.014114017 
  970000   -7.6811562   0.60715815   -7.0739981   0.96607289   0.40487332    3878.9689  0.013057879 
  971000   -7.6856504   0.59691102   -7.0887394   0.93566671   0.39804019    3878.9689  0.013087235 
  972000   -7.6923001   0.59624225   -7.0960579   0.90237987   0.39759423    3878.9689  0.013155242 
  973000   -7.6991263   0.59769527   -7.1014311   0.85204969   0.39856315    3878.9689  0.016845813 
  974000   -7.7073747   0.58469681   -7.1226779   0.81114749   0.38989535    3878.9689   0.01598306 
  975000   -7.6873743   0.60056832    -7.086806   0.93202189     0.400479    3878.9689  0.013195968 
  976000    -7.697687   0.60746106    -7.090226    0.8831781   0.40507531    3878.9689  0.013240192 
  977000   -7.6938375   0.60367584   -7.0901616    0.8959387    0.4025512    3878.9689  0.011721862 
  978000   -7.7025306   0.58461985   -7.1179107   0.83694544   0.38984403    3878.9689  0.010460091 
  979000   -7.7108488   0.60658445   -7.1042643   0.80233594   0.40449076    3878.9689  0.010235192 
  980000   -7.6898208   0.59106548   -7.0987553   0.91949648   0.39414219    3878.9689  0.010909771 
  981000   -7.6912253   0.60095015   -7.0902752   0.90462584   0.40073362    3878.9689 0.0098130375 
  982000    -7.687707   0.61453694   -7.0731701   0.93698428   0.40979374    3878.9689 0.0097098579 
  983000   -7.6820233   0.60241936   -7.0796039   0.95789586   0.40171333    3878.9689 0.0091083254 
  984000   -7.6784144   0.58830312   -7.0901113   0.97146601   0.39230015    3878.9689  0.010653608 
  985000   -7.6974966   0.59829376   -7.0992028   0.88092432   0.39896224    3878.9689 0.0096130842 
  986000   -7.6925115   0.59309263   -7.0994189   0.90119698   0.39549396    3878.9689 0.0098027854 
  987000   -7.6959516    0.6046038   -7.0913478   0.88510731   0.40316999    3878.9689  0.010860174 
  988000   -7.6944263   0.60891155   -7.0855148   0.89997824   0.40604254    3878.9689 0.0097491627 
  989000   -7.7039368   0.60164452   -7.1022923    0.8361896   0.40119664    3878.9689  0.010430636 
  990000   -7.6969755   0.58875538   -7.1082201     0.862117   0.39260174    3878.9689  0.010812116 
  991000    -7.689644   0.58917107    -7.100473   0.91378199   0.39287893    3878.9689  0.010658549 
  992000   -7.6865414   0.59586866   -7.0906727   0.93161413   0.39734511    3878.9689 0.0095507886 
  993000   -7.6921229     0.599381   -7.0927419     0.906757   0.39968725    3878.9689 0.0097118178 
  994000     -7.69468   0.58788069   -7.1067993   0.88575506   0.39201847    3878.9689  0.011154279 
  995000    -7.696555   0.58733382   -7.1092212    0.8709135   0.39165379    3878.9689 0.0097920239 
  996000   -7.6887442   0.58764763   -7.1010966    0.9107871   0.39186305    3878.9689  0.010015483 
  997000   -7.6984931   0.60191893   -7.0965742   0.86840239   0.40137963    3878.9689 0.0096426181 
  998000    -7.684763   0.59881071   -7.0859523   0.93520843   0.39930697    3878.9689  0.010552876 
  999000   -7.6831609   0.61763397   -7.0655269   0.97181287   0.41185895    3878.9689  0.009693126 
 1000000   -7.7001688   0.60543255   -7.0947362   0.86501791   0.40372263    3878.9689  0.014108685 
Loop time of 2656.47 on 2 procs for 400000 steps with 4000 atoms

Performance: 65048.765 tau/day, 150.576 timesteps/s
99.2% CPU use with 2 MPI tasks x no OpenMP threads

MPI task timing breakdown:
Section |  min time  |  avg time  |  max time  |%varavg| %total
---------------------------------------------------------------
Pair    | 2318.7     | 2319.6     | 2320.4     |   1.8 | 87.32
Neigh   | 227.87     | 228.28     | 228.7      |   2.7 |  8.59
Comm    | 70.936     | 72.223     | 73.509     |  15.1 |  2.72
Output  | 1.2405     | 1.2883     | 1.3362     |   4.2 |  0.05
Modify  | 27.907     | 28.017     | 28.127     |   2.1 |  1.05
Other   |            | 7.072      |            |       |  0.27

Nlocal:    2000 ave 2007 max 1993 min
Histogram: 1 0 0 0 0 0 0 0 0 1
Nghost:    6669.5 ave 6678 max 6661 min
Histogram: 1 0 0 0 0 0 0 0 0 1
Neighs:    234978 ave 236229 max 233728 min
Histogram: 1 0 0 0 0 0 0 0 0 1

Total # of neighbors = 469957
Ave neighs/atom = 117.489
Neighbor list builds = 20000
Dangerous builds not checked
unfix     intnvt
unfix     rdfnvt
uncompute rdfnvt
uncompute msd
undump    idnvt

next      a
jump      in.melt temploop #it will again transfer the call to label temploop line
variable    a loop 11   #loop parameter defined
variable    temp equal 0.3+($a-1)*0.1   #temp value will increase at rate of 0.1 from 0.3 till 1.3
variable    temp equal 0.3+(3-1)*0.1   

log       log.lammps.npt.${temp}
log       log.lammps.npt.0.5
