thermo		${nthermo}
thermo		1000
thermo_style custom step pe ke etotal press temp vol density
dump		id all atom 1000 out.dump.npt.${temp}.lammpstrj
dump		id all atom 1000 out.dump.npt.1.2.lammpstrj
restart 100000 restartnvt1.data restartnvt2.data

fix 		intnpt all npt temp ${temp} ${temp} ${tdamp} iso ${pext} ${pext} ${pdamp}
fix 		intnpt all npt temp 1.2 ${temp} ${tdamp} iso ${pext} ${pext} ${pdamp}
fix 		intnpt all npt temp 1.2 1.2 ${tdamp} iso ${pext} ${pext} ${pdamp}
fix 		intnpt all npt temp 1.2 1.2 1 iso ${pext} ${pext} ${pdamp}
fix 		intnpt all npt temp 1.2 1.2 1 iso 1 ${pext} ${pdamp}
fix 		intnpt all npt temp 1.2 1.2 1 iso 1 1 ${pdamp}
fix 		intnpt all npt temp 1.2 1.2 1 iso 1 1 10
run		  100000
Neighbor list info ...
  update every 20 steps, delay 0 steps, check no
  max neighbors/atom: 2000, page size: 100000
  master list distance cutoff = 3.8
  ghost atom cutoff = 3.8
  binsize = 1.9, bins = 10 10 10
  1 neighbor lists, perpetual/occasional/extra = 1 0 0
  (1) pair lj/cut, perpetual
      attributes: half, newton on
      pair build: half/bin/atomonly/newton
      stencil: half/bin/3d/newton
      bin: standard
Per MPI rank memory allocation (min/avg/max) = 4.365 | 4.365 | 4.365 Mbytes
Step PotEng KinEng TotEng Press Temp Volume Density 
 4500000   -4.9572704    1.6564095   -3.3008609    0.9628493    1.1045491    5380.7933   0.74338481 
 4501000   -4.7584184    1.7793212   -2.9790972   0.97169298    1.1865108    5558.0344   0.71967889 
 4502000     -4.67372    1.7687081   -2.9050119   0.98533257    1.1794336    5627.2859   0.71082224 
 4503000   -4.7322943    1.7845273    -2.947767    1.0974695    1.1899823    5543.9365   0.72150899 
 4504000    -4.724684    1.8006008   -2.9240833   0.95950627    1.2007007    5584.1744      0.71631 
 4505000   -4.7145085    1.8347361   -2.8797724   0.91697881    1.2234632    5595.6394   0.71484234 
 4506000   -4.7477078    1.8360427   -2.9116651    1.0139792    1.2243346    5578.1797    0.7170798 
 4507000   -4.7361342    1.8283607   -2.9077734    1.0203968     1.219212    5571.9826   0.71787733 
 4508000   -4.7104565    1.8093362   -2.9011203   0.98536434    1.2065258    5605.6607   0.71356442 
 4509000    -4.715578    1.8033713   -2.9122067    1.0980322    1.2025482    5581.5816   0.71664276 
 4510000   -4.7075724    1.8031176   -2.9044548   0.99011852     1.202379     5608.415   0.71321398 
 4511000   -4.7031825    1.8146572   -2.8885253   0.90729823     1.210074    5625.5538   0.71104111 
 4512000   -4.7882931    1.8214474   -2.9668457   0.97050755    1.2146019    5540.6637   0.72193517 
 4513000   -4.7149126    1.7907408   -2.9241718   0.99965102    1.1941257    5589.9137   0.71557455 
 4514000   -4.6695383    1.7970377   -2.8725006   0.97110086    1.1983247    5641.9994   0.70896853 
 4515000   -4.7670786     1.787721   -2.9793576    1.0100789     1.192112    5546.0828   0.72122977 
 4516000   -4.7101676    1.7958131   -2.9143544   0.87914919    1.1975081    5621.8584    0.7115085 
 4517000   -4.7113123    1.7883052   -2.9230071   0.95082017    1.1925016    5604.4043   0.71372439 
 4518000   -4.7638419    1.7518474   -3.0119945   0.89245746    1.1681903    5566.0242   0.71864582 
 4519000    -4.733996    1.7648453   -2.9691507    1.0350568    1.1768578    5583.4452   0.71640356 
 4520000   -4.6737879    1.8287404   -2.8450475   0.96002399    1.2194652    5636.6188    0.7096453 
 4521000   -4.7123302    1.8171021   -2.8952281    1.0028686    1.2117043    5600.0318   0.71428166 
 4522000   -4.7493978     1.813675   -2.9357228   0.97594067     1.209419    5562.2675   0.71913118 
 4523000   -4.6902074    1.7901845   -2.9000229   0.99220207    1.1937548    5621.9426   0.71149784 
 4524000   -4.7241567    1.7893604   -2.9347964    1.0307897    1.1932052    5588.8546   0.71571015 
 4525000   -4.6935152    1.7916922    -2.901823   0.98331187    1.1947601    5615.2516   0.71234564 
 4526000   -4.7485507    1.8355754   -2.9129753    1.1576818    1.2240229    5533.2816   0.72289832 
 4527000   -4.7023854    1.8017197   -2.9006657    1.0460118    1.2014468    5601.5791   0.71408435 
 4528000   -4.6717385    1.7640304    -2.907708     0.902398    1.1763144    5641.1052   0.70908091 
 4529000   -4.7447467    1.7734263   -2.9713204    1.1094932    1.1825798    5543.8987    0.7215139 
 4530000   -4.7129132    1.8157959   -2.8971173   0.96535765    1.2108333    5618.3938   0.71194725 
 4531000   -4.6893778    1.8303523   -2.8590255   0.96944659      1.22054    5623.5128   0.71129917 
 4532000   -4.7294632    1.7947986   -2.9346646    1.0789458    1.1968316    5569.5813   0.71818684 
 4533000   -4.7039136    1.7922621   -2.9116515   0.89416184    1.1951402    5625.0286   0.71110749 
 4534000   -4.6549494    1.7606636   -2.8942858     1.056458    1.1740693     5628.149   0.71071324 
 4535000   -4.7391066    1.7970155   -2.9420911    0.9618495    1.1983099    5565.9088   0.71866071 
 4536000   -4.7055145    1.7944396   -2.9110748   0.93003237    1.1965922    5607.8848   0.71328142 
 4537000    -4.756633    1.8178931   -2.9387399    0.9124805    1.2122318    5571.6794    0.7179164 
 4538000   -4.7256627    1.8124621   -2.9132006   0.98168418    1.2086102    5598.5311   0.71447313 
 4539000   -4.6731903    1.7879848   -2.8852054   0.96223491     1.192288    5649.9647   0.70796903 
 4540000   -4.7111957     1.786866   -2.9243297    1.0698117    1.1915419    5585.3444   0.71615996 
 4541000    -4.728575    1.8220741    -2.906501    1.1036129    1.2150198    5554.0448   0.72019585 
 4542000   -4.7153701    1.8193772   -2.8959929    1.0755711    1.2132214    5574.4901   0.71755442 
 4543000   -4.7209741    1.8318786   -2.8890955   0.91728692    1.2215578    5613.3074   0.71259237 
 4544000   -4.6808374    1.8068892   -2.8739482    1.0779964     1.204894    5608.7572   0.71317047 
 4545000   -4.7196024    1.7728548   -2.9467477    1.0480666    1.1821987    5577.9271   0.71711227 
 4546000   -4.6972482    1.7705735   -2.9266747   0.92999472    1.1806775    5620.9269   0.71162641 
 4547000   -4.6990405    1.7891771   -2.9098634   0.99597136     1.193083     5611.308   0.71284627 
 4548000   -4.7610988     1.743059   -3.0180398   0.95996316    1.1623299     5558.822   0.71957692 
 4549000   -4.7086456    1.7911201   -2.9175256   0.99588711    1.1943786    5604.9168   0.71365912 
 4550000   -4.6818537    1.8157741   -2.8660796    1.0250912    1.2108188    5629.1276   0.71058968 
 4551000   -4.6954626    1.8243909   -2.8710717    1.0439765    1.2165647    5605.7033   0.71355899 
 4552000   -4.7209792    1.7996029   -2.9213764   0.95284471    1.2000352    5601.6437   0.71407612 
 4553000   -4.7571784    1.7875096   -2.9696688    0.8788042    1.1919711    5584.0151   0.71633045 
 4554000   -4.7042638    1.7708386   -2.9334251   0.98393768    1.1808543     5596.885   0.71468325 
 4555000   -4.6618456    1.7827779   -2.8790677    1.0235324    1.1888158    5649.3833   0.70804189 
 4556000   -4.6888873    1.8059403    -2.882947   0.87512999    1.2042612    5650.2849    0.7079289 
 4557000   -4.7527722    1.8187005   -2.9340717    1.0186644    1.2127702    5561.0625   0.71928701 
 4558000    -4.729941    1.8128193   -2.9171218     1.002736    1.2088484     5591.508   0.71537052 
 4559000   -4.6880942    1.7782358   -2.9098585   0.94505605     1.185787     5633.141   0.71008342 
 4560000    -4.758627    1.7996763   -2.9589507   0.97803623    1.2000842    5560.8933    0.7193089 
 4561000   -4.6807151    1.8041328   -2.8765822     1.040404     1.203056    5625.0786   0.71110117 
 4562000    -4.666715      1.78993    -2.876785   0.99815116    1.1935851    5640.7822   0.70912151 
 4563000   -4.7184803    1.7942679   -2.9242124     1.092586    1.1964777    5567.9957   0.71839136 
 4564000   -4.6664643    1.7580696   -2.9083947   0.93229372    1.1723395    5651.2524   0.70780771 
 4565000   -4.6924621    1.7761511    -2.916311    1.0697745    1.1843968    5601.5558   0.71408732 
 4566000     -4.72752    1.7851834   -2.9423365   0.92515751    1.1904199    5594.4435   0.71499515 
 4567000   -4.7076204    1.7811617   -2.9264587    1.0326619    1.1877381    5594.9177   0.71493455 
 4568000   -4.7152361    1.8164701    -2.898766    1.1450442    1.2112829    5568.9344   0.71827027 
 4569000   -4.7063453    1.8219632   -2.8843821    1.0561956    1.2149459    5595.7131   0.71483293 
 4570000   -4.7066249    1.8000894   -2.9065355    1.0202731    1.2003597    5599.6596   0.71432913 
 4571000   -4.7309698    1.7822807   -2.9486891    1.0465665    1.1884843    5565.1367   0.71876042 
 4572000   -4.7266187    1.8072601   -2.9193586   0.92273694    1.2051414    5603.7318   0.71381003 
 4573000   -4.7517457    1.8195864   -2.9321593    1.0101407    1.2133609    5567.4709   0.71845907 
 4574000   -4.7095139    1.8367949   -2.8727191    1.0613484    1.2248361    5589.3717   0.71564394 
 4575000   -4.6905536    1.8007076    -2.889846     1.103508    1.2007719    5594.8183   0.71494726 
 4576000   -4.6987659    1.8242546   -2.8745113    1.0330084    1.2164739    5607.4794   0.71333298 
 4577000   -4.6884846    1.7936131   -2.8948715    1.0437778    1.1960411    5605.6404     0.713567 
 4578000   -4.7079727    1.8204644   -2.8875083    0.9072348    1.2139464    5622.6714   0.71140562 
 4579000   -4.7177577    1.7988817   -2.9188759   0.95308432    1.1995544    5605.8183   0.71354436 
 4580000   -4.7520667     1.771482   -2.9805847   0.94467019    1.1812833    5570.4474   0.71807518 
 4581000   -4.7089196    1.7717896     -2.93713    1.0073227    1.1814884    5585.8976   0.71608903 
 4582000   -4.7129987    1.8183189   -2.8946799   0.86366132    1.2125157    5627.0903   0.71084696 
 4583000   -4.7540057    1.8194353   -2.9345704    1.1062557    1.2132602    5538.7871   0.72217977 
 4584000   -4.7032754    1.8108674    -2.892408    1.0048509    1.2075468    5604.3198   0.71373515 
 4585000   -4.7290877    1.8418103   -2.8872774     1.174163    1.2281806     5552.772   0.72036092 
 4586000   -4.7098007    1.8080813   -2.9017193   0.98278566     1.205689    5603.3525   0.71385835 
 4587000   -4.7534178    1.8301367   -2.9232811    1.1137235    1.2203962    5537.6886   0.72232303 
 4588000   -4.6827771    1.7890303   -2.8937468   0.96330001    1.1929851    5622.0763   0.71148091 
 4589000   -4.7311743     1.813731   -2.9174434    1.0090885    1.2094563    5578.1289   0.71708633 
 4590000   -4.6721255    1.7821774   -2.8899481    1.1178262    1.1884154    5612.2401   0.71272788 
 4591000   -4.6939001    1.7975001      -2.8964    1.0442829    1.1986331    5594.5802   0.71497768 
 4592000   -4.7197117    1.8110182   -2.9086935    0.9788937    1.2076474    5593.9588   0.71505711 
 4593000   -4.7012875    1.8155829   -2.8857046    1.0182238    1.2106913    5602.1973   0.71400556 
 4594000   -4.7176008    1.8434342   -2.8741666    1.0387244    1.2292634    5586.0686   0.71606711 
 4595000   -4.6955879    1.8111978   -2.8843901    1.0818586    1.2077671    5596.3076   0.71475699 
 4596000   -4.7487214    1.8341665   -2.9145549    1.0671027    1.2230834    5553.8368   0.72022282 
 4597000    -4.701318    1.8024177   -2.8989003    0.9876551    1.2019123    5612.7565   0.71266231 
 4598000   -4.6821902    1.7803725   -2.9018176   0.85544776    1.1872118    5639.1744   0.70932369 
 4599000   -4.7469952    1.7967831   -2.9502121    1.0778311    1.1981549    5553.4457   0.72027354 
 4600000   -4.7626348    1.8316262   -2.9310086    1.0095311    1.2213895    5548.0573   0.72097309 
Loop time of 371.51 on 2 procs for 100000 steps with 4000 atoms

Performance: 116282.289 tau/day, 269.172 timesteps/s
98.8% CPU use with 2 MPI tasks x no OpenMP threads

MPI task timing breakdown:
Section |  min time  |  avg time  |  max time  |%varavg| %total
---------------------------------------------------------------
Pair    | 296.75     | 302.32     | 307.89     |  32.0 | 81.38
Neigh   | 32.682     | 32.85      | 33.018     |   2.9 |  8.84
Comm    | 18.618     | 24.358     | 30.098     | 116.3 |  6.56
Output  | 0.20362    | 0.20422    | 0.20482    |   0.1 |  0.05
Modify  | 10.711     | 10.714     | 10.718     |   0.1 |  2.88
Other   |            | 1.06       |            |       |  0.29

Nlocal:    2000 ave 2004 max 1996 min
Histogram: 1 0 0 0 0 0 0 0 0 1
Nghost:    5570.5 ave 5590 max 5551 min
Histogram: 1 0 0 0 0 0 0 0 0 1
Neighs:    164502 ave 166678 max 162327 min
Histogram: 1 0 0 0 0 0 0 0 0 1

Total # of neighbors = 329005
Ave neighs/atom = 82.2512
Neighbor list builds = 5000
Dangerous builds not checked
unfix   intnpt
undump  id

#Using Nvt to calculate the rdf and msd
compute   msd all msd average yes
compute   rdfnvt all rdf 100 1 1
fix       rdfnvt all ave/time ${Nevery} ${Nrepeat} ${Nfreq} c_rdfnvt[*] file systemnvt.rdf.${temp} mode vector
fix       rdfnvt all ave/time 1000 ${Nrepeat} ${Nfreq} c_rdfnvt[*] file systemnvt.rdf.${temp} mode vector
fix       rdfnvt all ave/time 1000 100 ${Nfreq} c_rdfnvt[*] file systemnvt.rdf.${temp} mode vector
fix       rdfnvt all ave/time 1000 100 100000 c_rdfnvt[*] file systemnvt.rdf.${temp} mode vector
fix       rdfnvt all ave/time 1000 100 100000 c_rdfnvt[*] file systemnvt.rdf.1.2 mode vector
log       log.lammps.nvt.${temp}
log       log.lammps.nvt.1.2
