thermo    ${nthermo}
thermo    1000
thermo_style custom step pe ke etotal press temp vol c_msd[4]
dump      idnvt all atom 1000 out.dump.nvt.${temp}.lammpstrj
dump      idnvt all atom 1000 out.dump.nvt.0.5.lammpstrj
restart   100000 restartnpt1.data restartnp2.data

fix       intnvt all nvt temp ${temp} ${temp} ${tdamp}
fix       intnvt all nvt temp 0.5 ${temp} ${tdamp}
fix       intnvt all nvt temp 0.5 0.5 ${tdamp}
fix       intnvt all nvt temp 0.5 0.5 1
run       400000
Neighbor list info ...
  update every 20 steps, delay 0 steps, check no
  max neighbors/atom: 2000, page size: 100000
  master list distance cutoff = 3.8
  ghost atom cutoff = 3.8
  binsize = 1.9, bins = 9 9 9
  2 neighbor lists, perpetual/occasional/extra = 1 1 0
  (1) pair lj/cut, perpetual
      attributes: half, newton on
      pair build: half/bin/atomonly/newton
      stencil: half/bin/3d/newton
      bin: standard
  (2) compute rdf, occasional, copy from (1)
      attributes: half, newton on
      pair build: copy
      stencil: none
      bin: none
Per MPI rank memory allocation (min/avg/max) = 5.127 | 5.127 | 5.127 Mbytes
Step PotEng KinEng TotEng Press Temp Volume c_msd[4] 
 1100000   -7.5019488   0.73727805   -6.7646707   0.95790017   0.49164161    3945.2548            0 
 1101000   -7.5179997   0.75683063    -6.761169   0.88208676   0.50467992    3945.2548  0.009745195 
 1102000   -7.4998353   0.75865056   -6.7411848   0.98380121   0.50589351    3945.2548 0.0094798753 
 1103000   -7.4933174   0.75523761   -6.7380798    1.0112347   0.50361764    3945.2548 0.0098293593 
 1104000   -7.5162626   0.76973646   -6.7465262   0.91019519   0.51328596    3945.2548 0.0096039738 
 1105000   -7.5023907   0.74796905   -6.7544217   0.96344886   0.49877072    3945.2548   0.01038595 
 1106000   -7.5144173   0.75493884   -6.7594785   0.89283072   0.50341842    3945.2548  0.010871849 
 1107000   -7.5386141    0.7450007   -6.7936134   0.76476376   0.49679133    3945.2548  0.010143274 
 1108000   -7.5135921   0.75400696   -6.7595851   0.91750763     0.502797    3945.2548  0.013825377 
 1109000   -7.5056037   0.75979447   -6.7458092   0.95275754   0.50665631    3945.2548  0.014222942 
 1110000    -7.519179    0.7611863   -6.7579927   0.87077254   0.50758443    3945.2548  0.013231144 
 1111000   -7.5111508   0.73642411   -6.7747267   0.89552005   0.49107217    3945.2548  0.018573386 
 1112000   -7.5064012   0.73604291   -6.7703583   0.93240039   0.49081797    3945.2548  0.018558447 
 1113000   -7.5055719   0.75045057   -6.7551214   0.95137918   0.50042549    3945.2548  0.023583544 
 1114000   -7.5065417   0.75287117   -6.7536705    0.9436987   0.50203962    3945.2548  0.018727223 
 1115000   -7.5072583   0.73379494   -6.7734634    0.9205207   0.48931895    3945.2548  0.019811678 
 1116000   -7.5318291   0.76728044   -6.7645486   0.81349103    0.5116482    3945.2548  0.017608953 
 1117000   -7.4960523   0.75162076   -6.7444315   0.99152576   0.50120581    3945.2548   0.01628608 
 1118000   -7.5020988   0.76329691   -6.7388019   0.98224568   0.50899186    3945.2548  0.017904328 
 1119000   -7.5117275   0.75220567   -6.7595218   0.91331227   0.50159584    3945.2548  0.015592464 
 1120000   -7.5060107   0.74396411   -6.7620466   0.94196193    0.4961001    3945.2548  0.013400202 
 1121000   -7.5057015   0.75912651    -6.746575   0.95481071   0.50621089    3945.2548  0.016097428 
 1122000   -7.5084652   0.76462372   -6.7438415   0.93693519   0.50987661    3945.2548  0.015602565 
 1123000   -7.5015017   0.75362439   -6.7478774   0.96224706   0.50254189    3945.2548  0.012492887 
 1124000   -7.5151952   0.75932211   -6.7558731   0.89881582   0.50634133    3945.2548  0.016121699 
 1125000   -7.5149243   0.74961116   -6.7653132   0.89600433   0.49986574    3945.2548  0.018192007 
 1126000   -7.5037657   0.73431537   -6.7694503   0.94435726     0.489666    3945.2548  0.021569255 
 1127000   -7.5143349    0.7608163   -6.7535186   0.90438231    0.5073377    3945.2548   0.01849412 
 1128000   -7.5054135   0.75244158   -6.7529719   0.95170646   0.50175316    3945.2548   0.01544189 
 1129000   -7.5032091   0.75314968   -6.7500594   0.95737844   0.50222535    3945.2548   0.01288301 
 1130000   -7.5359996   0.73472479   -6.8012748     0.780213   0.48993901    3945.2548  0.013243781 
 1131000   -7.5061129   0.75213951   -6.7539734   0.94732469   0.50155173    3945.2548  0.015183248 
 1132000   -7.4989272   0.74523872   -6.7536884   0.97886291   0.49695005    3945.2548  0.017218781 
 1133000   -7.5084233   0.76184557   -6.7465777   0.94810431   0.50802405    3945.2548  0.017817301 
 1134000   -7.5092584   0.74153424   -6.7677241   0.92422587   0.49447978    3945.2548  0.018270433 
 1135000   -7.5142204    0.7349071   -6.7793133   0.88501973   0.49006058    3945.2548  0.018969365 
 1136000   -7.5152778   0.75305333   -6.7622244   0.88237844   0.50216109    3945.2548  0.026548939 
 1137000   -7.5120505   0.75971575   -6.7523347    0.9165099   0.50660382    3945.2548  0.027440249 
 1138000   -7.5151585   0.76129369   -6.7538648   0.91313084   0.50765604    3945.2548  0.027387401 
 1139000   -7.5224188   0.75228369   -6.7701352   0.85084888   0.50164787    3945.2548  0.040193087 
 1140000   -7.5196729   0.74743219   -6.7722407   0.85922251   0.49841273    3945.2548  0.047676371 
 1141000   -7.5067968   0.74806856   -6.7587282   0.93202198   0.49883708    3945.2548  0.046133527 
 1142000    -7.491252   0.74348239   -6.7477697    1.0178817   0.49577887    3945.2548   0.05400194 
 1143000    -7.507731   0.74845916   -6.7592719   0.93134042   0.49909755    3945.2548  0.055946044 
 1144000   -7.5195425   0.74272427   -6.7768182   0.85986347   0.49527333    3945.2548  0.060673237 
 1145000   -7.5144427   0.74615141   -6.7682913   0.89730046   0.49755866    3945.2548  0.059696115 
 1146000   -7.5104925   0.76301318   -6.7474793   0.92019222   0.50880265    3945.2548  0.057928937 
 1147000    -7.496739   0.76116201    -6.735577    0.9846483   0.50756823    3945.2548  0.053522829 
 1148000   -7.5117565   0.75907865   -6.7526779   0.90357008   0.50617898    3945.2548   0.04227583 
 1149000    -7.506615   0.73957643   -6.7670386   0.93053396   0.49317425    3945.2548   0.04009444 
 1150000   -7.5081895   0.74001187   -6.7681776   0.92107619   0.49346461    3945.2548  0.046375479 
 1151000   -7.5014284   0.73479794   -6.7666305   0.95158542   0.48998779    3945.2548  0.043749646 
 1152000   -7.5174625   0.75457254     -6.76289    0.8731361   0.50317416    3945.2548  0.040021374 
 1153000   -7.5134169   0.75797467   -6.7554422   0.89903446   0.50544281    3945.2548  0.043938386 
 1154000   -7.5041169   0.74399605   -6.7601208   0.94003438    0.4961214    3945.2548  0.052667479 
 1155000   -7.5134398   0.73635898   -6.7770808   0.88873234   0.49102874    3945.2548  0.048976475 
 1156000   -7.5199824   0.75356672   -6.7664157   0.86202966   0.50250344    3945.2548   0.04697293 
 1157000   -7.5024572   0.74541034   -6.7570469   0.95682142   0.49706449    3945.2548  0.039913408 
 1158000   -7.5044763   0.75953599   -6.7449403   0.95585759   0.50648394    3945.2548  0.043725276 
 1159000   -7.5039504   0.74606766   -6.7578827   0.95434652   0.49750282    3945.2548  0.040412548 
 1160000   -7.5034876   0.73990272   -6.7635849    0.9499201   0.49339183    3945.2548  0.038211894 
 1161000    -7.521794   0.72906864   -6.7927254   0.84138745    0.4861673    3945.2548  0.040427029 
 1162000     -7.51585   0.76160148   -6.7542485   0.88892543   0.50786128    3945.2548  0.038337005 
 1163000   -7.4978175   0.74740142   -6.7504161    0.9742183   0.49839221    3945.2548  0.032522822 
 1164000   -7.4989437   0.73648688   -6.7624568   0.96465976   0.49111403    3945.2548  0.031453458 
 1165000   -7.5261429    0.7533949    -6.772748   0.82946058   0.50238886    3945.2548  0.026866981 
 1166000   -7.5109109   0.73869145   -6.7722194   0.90338071   0.49258411    3945.2548   0.03247708 
 1167000   -7.5126098   0.74877271   -6.7638371   0.89547825   0.49930663    3945.2548  0.032728503 
 1168000   -7.5052202   0.74543909   -6.7597811   0.94324486   0.49708367    3945.2548  0.026828105 
 1169000    -7.494385   0.76180624   -6.7325787    1.0109928   0.50799782    3945.2548   0.02647798 
 1170000   -7.4930288   0.74860596   -6.7444229     1.013883   0.49919544    3945.2548  0.034243886 
 1171000   -7.5104009   0.75847488    -6.751926   0.92055505   0.50577636    3945.2548  0.040574785 
 1172000   -7.5166359    0.7414929    -6.775143   0.88038522   0.49445221    3945.2548  0.040778503 
 1173000    -7.509619   0.74092275   -6.7686963   0.90796926   0.49407202    3945.2548  0.034380162 
 1174000    -7.505752   0.75359367   -6.7521584   0.94160371   0.50252141    3945.2548  0.028642783 
 1175000   -7.5058589   0.75021931   -6.7556396   0.93324114   0.50027127    3945.2548  0.026035595 
 1176000   -7.5194834    0.7504556   -6.7690278   0.86747972   0.50042884    3945.2548  0.026014847 
 1177000   -7.5196834   0.74098339      -6.7787   0.85659927   0.49411246    3945.2548  0.030453604 
 1178000   -7.5209936   0.75380009   -6.7671935   0.86673727   0.50265906    3945.2548  0.035397064 
 1179000   -7.5073587   0.75776168   -6.7495971   0.92932161   0.50530078    3945.2548  0.035202164 
 1180000   -7.5110212   0.74515772   -6.7658635   0.90505047   0.49689604    3945.2548  0.030811009 
 1181000   -7.5134947   0.74025631   -6.7732384   0.89064666   0.49362761    3945.2548   0.02402663 
 1182000   -7.5098632   0.74859631   -6.7612669   0.91654698     0.499189    3945.2548  0.025083983 
 1183000   -7.5127904   0.75354835   -6.7592421   0.90855019   0.50249119    3945.2548  0.023643905 
 1184000   -7.5050099   0.75774661   -6.7472633   0.95173641   0.50529073    3945.2548  0.020369923 
 1185000   -7.5094627   0.74612767    -6.763335   0.92138261   0.49754283    3945.2548  0.020960431 
 1186000   -7.5214798   0.74568984   -6.7757899   0.85726124   0.49725087    3945.2548   0.02258411 
 1187000   -7.5144165   0.73291232   -6.7815041   0.88394804    0.4887304    3945.2548  0.021149842 
 1188000   -7.5125871     0.747651   -6.7649361   0.88927062   0.49855864    3945.2548  0.019253454 
 1189000   -7.5103186    0.7559615   -6.7543571   0.92738846   0.50410036    3945.2548  0.019792994 
 1190000   -7.5073912   0.75808583   -6.7493054   0.94629096   0.50551693    3945.2548  0.018071495 
 1191000     -7.49208   0.75074094   -6.7413391    1.0129112   0.50061911    3945.2548  0.018993121 
 1192000   -7.5093219   0.75852885   -6.7507931   0.93494632   0.50581235    3945.2548  0.018861878 
 1193000    -7.518613   0.75228193   -6.7663311   0.87092908    0.5016467    3945.2548  0.018545313 
 1194000   -7.5063564   0.74021684   -6.7661395   0.93203321   0.49360129    3945.2548  0.018943189 
 1195000   -7.5114466    0.7485311   -6.7629155    0.9021505   0.49914552    3945.2548  0.019780771 
 1196000   -7.5016623   0.75662956   -6.7450327   0.97406266   0.50454584    3945.2548   0.01786337 
 1197000   -7.5136488   0.76838133   -6.7452675   0.92088234   0.51238231    3945.2548  0.018141786 
 1198000   -7.5134091   0.75168277   -6.7617263   0.90209967   0.50124716    3945.2548  0.020526916 
 1199000   -7.5121935   0.74347634   -6.7687171   0.90358497   0.49577484    3945.2548  0.020406061 
 1200000    -7.523752   0.74522694   -6.7785251   0.82830754   0.49694219    3945.2548  0.021956759 
 1201000   -7.5213446   0.75581047   -6.7655341   0.85500997   0.50399965    3945.2548  0.020230519 
 1202000   -7.5173496    0.7612854   -6.7560642    0.8751652   0.50765051    3945.2548  0.022838361 
 1203000   -7.4973499   0.74748605   -6.7498639   0.97834631   0.49844865    3945.2548  0.022601968 
 1204000   -7.4968645   0.75753649    -6.739328   0.99855746   0.50515062    3945.2548  0.026902285 
 1205000   -7.4998797   0.76749683   -6.7323828   0.98338306    0.5117925    3945.2548  0.026105446 
 1206000   -7.5088104   0.73704457   -6.7717658   0.91269041   0.49148592    3945.2548  0.022591212 
 1207000   -7.5082972   0.74179852   -6.7664987   0.92918707   0.49465601    3945.2548  0.023933989 
 1208000   -7.5047034   0.75504029   -6.7496631   0.94502553   0.50348607    3945.2548  0.025473658 
 1209000   -7.5053959    0.7731193   -6.7322766   0.95050517   0.51554175    3945.2548  0.022764887 
 1210000   -7.5024747   0.75849915   -6.7439755   0.95693066   0.50579255    3945.2548  0.023307897 
 1211000   -7.5020673   0.75262351   -6.7494438   0.96364099   0.50187448    3945.2548  0.028651749 
 1212000   -7.4992524   0.73301929   -6.7662332   0.95483964   0.48880172    3945.2548  0.033280447 
 1213000   -7.5109113   0.74886548   -6.7620459    0.9044195   0.49936849    3945.2548  0.034709968 
 1214000   -7.5041714   0.74624141     -6.75793   0.95722978   0.49761868    3945.2548  0.039699825 
 1215000   -7.5254941   0.76758092   -6.7579132   0.83802708   0.51184857    3945.2548  0.047389876 
 1216000   -7.5271303   0.75021243   -6.7769179   0.82626989   0.50026669    3945.2548  0.071243443 
 1217000   -7.5316354   0.75331138    -6.778324   0.80714571   0.50233317    3945.2548  0.066381488 
 1218000   -7.5203938   0.74831161   -6.7720822   0.86122224   0.49899916    3945.2548  0.059460436 
 1219000    -7.500744   0.76201176   -6.7387323   0.98360919   0.50813487    3945.2548  0.054032516 
 1220000   -7.5120151   0.76145861   -6.7505565   0.91185232   0.50776602    3945.2548  0.053911336 
 1221000   -7.5010431   0.73138459   -6.7696585    0.9595755   0.48771165    3945.2548   0.04779036 
 1222000   -7.5096153   0.74177728    -6.767838   0.91572854   0.49464185    3945.2548  0.042978928 
 1223000   -7.4859229   0.75589718   -6.7300257    1.0488446   0.50405747    3945.2548  0.049744524 
 1224000   -7.5018739   0.76198912   -6.7398847   0.96736585   0.50811977    3945.2548  0.043183461 
 1225000   -7.5047007   0.75581963    -6.748881   0.95731788   0.50400576    3945.2548    0.0536898 
 1226000   -7.5096489    0.7562585   -6.7533905   0.93033478   0.50429841    3945.2548  0.053897947 
 1227000   -7.5106791    0.7423661    -6.768313   0.90605176   0.49503449    3945.2548  0.049411813 
 1228000   -7.5336884    0.7476488   -6.7860396   0.78241516   0.49855717    3945.2548  0.046615961 
 1229000   -7.5180209   0.74682955   -6.7711913   0.87276102   0.49801087    3945.2548  0.059267963 
 1230000   -7.5070418   0.74675293   -6.7602888   0.93161015   0.49795978    3945.2548  0.052612198 
 1231000   -7.5099333   0.75664348   -6.7532898    0.9204449   0.50455512    3945.2548  0.045333177 
 1232000   -7.5053505   0.74172661   -6.7636238   0.93041185   0.49460806    3945.2548    0.0475986 
 1233000   -7.5173753   0.74398224   -6.7733931   0.86912507   0.49611219    3945.2548   0.03936581 
 1234000   -7.5145596   0.73921379   -6.7753458   0.87949954   0.49293243    3945.2548   0.04298331 
 1235000   -7.5169098   0.73453951   -6.7823703   0.87289023   0.48981546    3945.2548  0.045180866 
 1236000   -7.5148338   0.74924266   -6.7655912   0.89051012   0.49962001    3945.2548  0.057494824 
 1237000   -7.5129994   0.75576583   -6.7572336   0.90394581   0.50396988    3945.2548  0.049502895 
 1238000   -7.5167515   0.74820207   -6.7685495   0.87697744   0.49892611    3945.2548  0.047421641 
 1239000   -7.5221424   0.74568242     -6.77646   0.85205299   0.49724592    3945.2548  0.046509155 
 1240000    -7.514403   0.74002352   -6.7743795   0.89043788   0.49347238    3945.2548  0.053903335 
 1241000   -7.5092488   0.75439621   -6.7548525   0.91826889   0.50305657    3945.2548  0.056559546 
 1242000   -7.5029401   0.75917771   -6.7437624   0.95842429   0.50624504    3945.2548  0.051978539 
 1243000   -7.5093435   0.75084563   -6.7584978    0.9195593   0.50068893    3945.2548  0.045884706 
 1244000   -7.5165794   0.74465797   -6.7719215   0.87474607   0.49656279    3945.2548  0.042401217 
 1245000   -7.5179741   0.74733064   -6.7706435   0.88132682   0.49834501    3945.2548  0.049594553 
 1246000   -7.5051847   0.74264155   -6.7625432   0.93915334   0.49521817    3945.2548  0.057205353 
 1247000   -7.4975616   0.75719563   -6.7403659   0.98642488   0.50492332    3945.2548  0.053796962 
 1248000   -7.5059471   0.74679825   -6.7591488   0.93757543      0.49799    3945.2548  0.052066053 
 1249000   -7.5162488   0.75201454   -6.7642342   0.88540709   0.50146839    3945.2548  0.053703193 
 1250000   -7.5244708   0.75244016   -6.7720307   0.84771352   0.50175221    3945.2548  0.054045626 
 1251000   -7.5163303   0.75268837   -6.7636419   0.88473743   0.50191773    3945.2548  0.057999769 
 1252000   -7.5167803   0.76221932    -6.754561   0.88267518   0.50827328    3945.2548  0.059886405 
 1253000   -7.5113677   0.74340086   -6.7679668   0.90747287    0.4957245    3945.2548  0.060866096 
 1254000   -7.5219339    0.7541357   -6.7677982   0.84545189   0.50288285    3945.2548   0.05346638 
 1255000   -7.5155931   0.75123052   -6.7643626   0.87832684   0.50094558    3945.2548  0.057485337 
 1256000   -7.5100915   0.75165383   -6.7584376   0.91914352   0.50122786    3945.2548  0.052962304 
 1257000   -7.5004723   0.76880947   -6.7316628    0.9693432   0.51266781    3945.2548  0.061343602 
 1258000   -7.5066372   0.76405639   -6.7425808   0.93939873    0.5094983    3945.2548  0.060189202 
 1259000    -7.497881   0.74852852   -6.7493524   0.97777851    0.4991438    3945.2548   0.05351121 
 1260000   -7.5206297   0.75640375   -6.7642259   0.86782459   0.50439526    3945.2548  0.043628469 
 1261000   -7.5315956   0.75278965    -6.778806   0.79833874   0.50198526    3945.2548  0.034041173 
 1262000   -7.5120478   0.76218749   -6.7498603   0.91081462   0.50825206    3945.2548  0.029236734 
 1263000   -7.5042242   0.76165567   -6.7425685   0.94975206   0.50789742    3945.2548  0.031233656 
 1264000   -7.5105061   0.75354458   -6.7569615   0.91452447   0.50248867    3945.2548  0.035683898 
 1265000   -7.5160096   0.74506378   -6.7709458   0.87743766   0.49683339    3945.2548  0.036102587 
 1266000   -7.5120379   0.74621168   -6.7658262   0.90302816   0.49759886    3945.2548  0.030922381 
 1267000   -7.5069037   0.75212845   -6.7547752   0.93793258   0.50154435    3945.2548  0.029694376 
 1268000   -7.4993976   0.75075857   -6.7486391   0.98493422   0.50063087    3945.2548  0.026065712 
 1269000   -7.5089368    0.7564316   -6.7525052   0.93079578   0.50441383    3945.2548  0.024211473 
 1270000   -7.5015101   0.73530476   -6.7662053    0.9558688   0.49032576    3945.2548  0.025420413 
 1271000   -7.5152407   0.73170821   -6.7835325   0.87377096   0.48792746    3945.2548  0.025510247 
 1272000   -7.5201431   0.73037651   -6.7897665   0.85506699   0.48703943    3945.2548  0.024030466 
 1273000   -7.5163898   0.75591578   -6.7604741   0.87959476   0.50406987    3945.2548  0.024846412 
 1274000   -7.5089492   0.76386116    -6.745088    0.9347344   0.50936812    3945.2548  0.027316955 
 1275000   -7.5075437   0.74829738   -6.7592464   0.92181125   0.49898967    3945.2548  0.028942739 
 1276000   -7.5112994   0.73693596   -6.7743634   0.90384029   0.49141349    3945.2548  0.025993083 
 1277000   -7.5186836   0.74947144   -6.7692122   0.87053731   0.49977257    3945.2548   0.02405417 
 1278000     -7.51047   0.74626587   -6.7642042   0.91418503   0.49763499    3945.2548  0.025993114 
 1279000   -7.5106277   0.75184969    -6.758778   0.90622676   0.50135847    3945.2548   0.02856955 
 1280000    -7.511323   0.74841191   -6.7629111   0.90571446   0.49906604    3945.2548  0.029343469 
 1281000   -7.5150408   0.75098933   -6.7640514   0.89048362   0.50078475    3945.2548  0.030610602 
 1282000   -7.5227055   0.74785249    -6.774853   0.85084195     0.498693    3945.2548  0.031430729 
 1283000   -7.5075493     0.751239   -6.7563103   0.93160567   0.50095124    3945.2548  0.028617509 
 1284000   -7.5091816   0.76630096   -6.7428806   0.92744459   0.51099506    3945.2548  0.036808403 
 1285000   -7.5048909     0.746057   -6.7588339   0.94765671   0.49749571    3945.2548  0.034314723 
 1286000   -7.5108644   0.74458882   -6.7662755   0.90694461   0.49651668    3945.2548  0.030531682 
 1287000   -7.5170665    0.7338646   -6.7832019   0.87247579   0.48936541    3945.2548  0.039181439 
 1288000   -7.5163422   0.75602087   -6.7603213   0.88614187   0.50413995    3945.2548  0.041971523 
 1289000    -7.504729   0.75413897     -6.75059   0.94547437   0.50288503    3945.2548  0.040191419 
 1290000   -7.5062271   0.76359992   -6.7426272   0.94933353   0.50919391    3945.2548  0.038152278 
 1291000   -7.5095145   0.76495576   -6.7445587   0.92844418   0.51009803    3945.2548  0.034974549 
 1292000   -7.5170135   0.75025323   -6.7667602   0.87774668    0.5002939    3945.2548  0.032952193 
 1293000   -7.5016495   0.74919918   -6.7524503   0.95893433   0.49959102    3945.2548  0.039557417 
 1294000   -7.5049246   0.74777567   -6.7571489   0.93534355   0.49864177    3945.2548  0.048533686 
 1295000   -7.5106239   0.74009932   -6.7705246   0.90947131   0.49352293    3945.2548  0.042600064 
 1296000   -7.5223614   0.75131001   -6.7710514   0.84544573   0.50099859    3945.2548    0.0390401 
 1297000   -7.5103577   0.74332367    -6.767034   0.91309124   0.49567303    3945.2548  0.034365741 
 1298000   -7.5100947   0.74951028   -6.7605844   0.91576995   0.49979847    3945.2548  0.031555601 
 1299000   -7.4970256   0.75485562     -6.74217   0.98316851   0.50336292    3945.2548  0.032539403 
 1300000   -7.5006208   0.76302524   -6.7375956   0.97952059   0.50881069    3945.2548  0.029411487 
 1301000   -7.4975743    0.7530193    -6.744555   0.97997194    0.5021384    3945.2548  0.029071401 
 1302000   -7.5185161   0.76363553   -6.7548806   0.87531202   0.50921765    3945.2548  0.027189437 
 1303000   -7.5096221   0.74162988   -6.7679922   0.91635996   0.49454356    3945.2548  0.028683778 
 1304000   -7.5126451   0.71786878   -6.7947763   0.88820018   0.47869886    3945.2548  0.027440815 
 1305000   -7.5073716   0.75066147   -6.7567101   0.92024834   0.50056612    3945.2548  0.030648254 
 1306000   -7.5057385   0.75219093   -6.7535476   0.94607643   0.50158602    3945.2548  0.026117801 
 1307000   -7.5043828   0.74632288   -6.7580599   0.94330156     0.497673    3945.2548  0.029739078 
 1308000   -7.5095211   0.74137793   -6.7681431   0.90609079   0.49437555    3945.2548  0.026899733 
 1309000   -7.5155902   0.74273936   -6.7728509   0.88179042   0.49528339    3945.2548  0.029155976 
 1310000   -7.5209439    0.7439495   -6.7769944    0.8397936   0.49609036    3945.2548  0.025517326 
 1311000   -7.5213596      0.74567   -6.7756896   0.84430244   0.49723764    3945.2548  0.021629777 
 1312000   -7.5097196   0.75009198   -6.7596276    0.9278222   0.50018637    3945.2548  0.023617688 
 1313000   -7.5104314   0.75004529   -6.7603861   0.91345675   0.50015523    3945.2548  0.023437696 
 1314000   -7.5286666   0.75253739   -6.7761292   0.81075071   0.50181705    3945.2548  0.022024849 
 1315000   -7.5137294   0.73340417   -6.7803252   0.88305171   0.48905838    3945.2548  0.022146535 
 1316000   -7.5101888   0.73440935   -6.7757794   0.90695492   0.48972867    3945.2548  0.020806707 
 1317000   -7.5004406   0.75010862    -6.750332   0.96361817   0.50019747    3945.2548   0.02609168 
 1318000   -7.5067086   0.74482937   -6.7618792   0.92816974   0.49667708    3945.2548   0.02721377 
 1319000    -7.503131   0.73503338   -6.7680976   0.94655192   0.49014479    3945.2548  0.024430579 
 1320000   -7.5092744   0.74172339    -6.767551    0.9132628   0.49460591    3945.2548  0.023763683 
 1321000   -7.5088665   0.75048248   -6.7583841   0.92011929   0.50044676    3945.2548  0.023365426 
 1322000   -7.4872057   0.74604201   -6.7411637     1.034679   0.49748571    3945.2548  0.022258512 
 1323000   -7.5063804   0.75600712   -6.7503733   0.93336651   0.50413078    3945.2548  0.020830389 
 1324000   -7.5086807   0.75475641   -6.7539243   0.92280187   0.50329676    3945.2548  0.021537495 
 1325000   -7.5137338   0.74145089   -6.7722829   0.89038102    0.4944242    3945.2548   0.02345645 
 1326000   -7.5218969   0.73626908   -6.7856278   0.84455445    0.4909688    3945.2548   0.02429483 
 1327000   -7.5213931   0.74761667   -6.7737764   0.85399284   0.49853575    3945.2548  0.025129884 
 1328000   -7.5008994   0.74397273   -6.7569267   0.96773492   0.49610585    3945.2548  0.024249818 
 1329000   -7.5026157   0.75572942   -6.7468863   0.95432714    0.5039456    3945.2548  0.029424144 
 1330000   -7.5044714   0.72868516   -6.7757862   0.93716031   0.48591158    3945.2548  0.027528786 
 1331000   -7.5228402   0.74524797   -6.7775922   0.84368132   0.49695622    3945.2548  0.030203618 
 1332000   -7.5200526   0.75967817   -6.7603744   0.86489397   0.50657876    3945.2548  0.034305605 
 1333000   -7.4994375   0.75716856    -6.742269   0.98129917   0.50490526    3945.2548  0.040364169 
 1334000   -7.5093487   0.75988222   -6.7494665   0.92107048   0.50671482    3945.2548  0.030189711 
 1335000   -7.5104128   0.75699795   -6.7534148    0.9119206   0.50479149    3945.2548   0.02965579 
 1336000   -7.5156025   0.72047347    -6.795129   0.87903542   0.48043576    3945.2548  0.030668543 
 1337000   -7.5133198   0.75521785   -6.7581019    0.8957922   0.50360446    3945.2548  0.032828878 
 1338000   -7.5060108    0.7490611   -6.7569497   0.93447199   0.49949894    3945.2548  0.030481733 
 1339000   -7.5117808   0.75213535   -6.7596455   0.90893824   0.50154895    3945.2548  0.023873335 
 1340000   -7.5178313   0.73478422   -6.7830471     0.868187   0.48997864    3945.2548  0.026791414 
 1341000   -7.5209888   0.74232839   -6.7786604   0.85714702   0.49500935    3945.2548  0.028739499 
 1342000    -7.524609   0.75139552   -6.7732135   0.83486853   0.50105561    3945.2548  0.025718489 
 1343000   -7.4934727   0.75693843   -6.7365342    1.0130651   0.50475181    3945.2548  0.031802125 
 1344000   -7.4967004    0.7571285   -6.7395719   0.98865475   0.50487855    3945.2548  0.035880283 
 1345000   -7.5016149   0.73853922   -6.7630757   0.95541123    0.4924826    3945.2548  0.034374407 
 1346000    -7.533186   0.75672157   -6.7764644   0.79175597    0.5046072    3945.2548  0.026041499 
 1347000   -7.5091695   0.74794992   -6.7612196   0.92495479   0.49875797    3945.2548  0.027285663 
 1348000   -7.5026661   0.75652377   -6.7461424   0.96854467    0.5044753    3945.2548  0.024484271 
 1349000   -7.5028441   0.75732134   -6.7455228   0.95584904   0.50500714    3945.2548  0.024219074 
 1350000   -7.5144949   0.75357263   -6.7609222   0.89832578   0.50250738    3945.2548  0.024828137 
 1351000   -7.5118076   0.74955299   -6.7622546   0.90742727   0.49982695    3945.2548  0.027357251 
 1352000   -7.5147451   0.74123018    -6.773515   0.88172917   0.49427702    3945.2548  0.034891803 
 1353000   -7.5251213   0.74435278   -6.7807685   0.82931009   0.49635928    3945.2548   0.03333933 
 1354000   -7.5079592   0.75543141   -6.7525278    0.9291796   0.50374688    3945.2548  0.036245161 
 1355000   -7.5044297   0.75186571   -6.7525639   0.95015917   0.50136915    3945.2548  0.036975729 
 1356000   -7.5072081   0.73265448   -6.7745536   0.91236564   0.48855846    3945.2548  0.032738755 
 1357000   -7.5206329   0.73699445   -6.7836385   0.84395602   0.49145249    3945.2548  0.028388572 
 1358000   -7.5236504   0.74574834    -6.777902   0.84603829   0.49728989    3945.2548  0.027788983 
 1359000   -7.5277628   0.75513799   -6.7726248   0.82788659   0.50355121    3945.2548   0.02480803 
 1360000   -7.5039283       0.7437   -6.7602283   0.94896482   0.49592398    3945.2548  0.025292636 
 1361000   -7.5120695   0.76686915   -6.7452003    0.9178294   0.51137395    3945.2548  0.021795905 
 1362000   -7.5002905   0.76788693   -6.7324036   0.99027868   0.51205263    3945.2548   0.02607458 
 1363000   -7.5114362   0.76042712   -6.7510091   0.90944229   0.50707818    3945.2548   0.02390713 
 1364000   -7.5173827   0.75432054   -6.7630622   0.87196776   0.50300611    3945.2548  0.024062923 
 1365000   -7.5262456   0.75190922   -6.7743364   0.83066251   0.50139816    3945.2548   0.02247493 
 1366000    -7.527142   0.74488463   -6.7822574   0.81792499   0.49671393    3945.2548  0.021312077 
 1367000   -7.5390081   0.75131906    -6.787689    0.7634806   0.50100462    3945.2548  0.023874995 
 1368000   -7.5218051   0.76058717   -6.7612179   0.85591351   0.50718491    3945.2548  0.026760088 
 1369000   -7.4958265   0.74046766   -6.7553588   0.98971049   0.49376855    3945.2548   0.03102226 
 1370000   -7.5169178   0.76167722   -6.7552406   0.88696638   0.50791179    3945.2548  0.026471876 
 1371000   -7.5124273   0.74146927    -6.770958   0.89859519   0.49443646    3945.2548   0.02334741 
 1372000   -7.5194892   0.74027332   -6.7792159   0.87074631   0.49363895    3945.2548  0.020955974 
 1373000   -7.5174114   0.74572488   -6.7716865   0.86766601   0.49727424    3945.2548  0.019299663 
 1374000   -7.5059475   0.73952079   -6.7664267    0.9368731   0.49313714    3945.2548   0.02102188 
 1375000   -7.5218526   0.75993868   -6.7619139   0.86171594   0.50675247    3945.2548  0.020309559 
 1376000   -7.5024179    0.7591604   -6.7432575   0.96738735   0.50623349    3945.2548  0.017451141 
 1377000   -7.5037452   0.77009896   -6.7336463   0.96225622   0.51352769    3945.2548  0.019070366 
 1378000   -7.5002325   0.74981346    -6.750419   0.97005526   0.50000064    3945.2548  0.018507905 
 1379000   -7.5074001   0.75201055   -6.7553895   0.93520256   0.50146573    3945.2548  0.019365411 
 1380000   -7.5131299   0.74449508   -6.7686348   0.89989562   0.49645417    3945.2548  0.017473637 
 1381000    -7.533871   0.74566905    -6.788202   0.77359534   0.49723701    3945.2548  0.019710005 
 1382000   -7.5142571   0.73912827   -6.7751289   0.88840218    0.4928754    3945.2548  0.018667925 
 1383000   -7.5053481   0.74294382   -6.7624043   0.93743996   0.49541973    3945.2548  0.020561564 
 1384000   -7.5132902   0.76348683   -6.7498034   0.90268747    0.5091185    3945.2548  0.017636527 
 1385000   -7.4995471    0.7550581    -6.744489   0.97753741   0.50349794    3945.2548  0.018547266 
 1386000   -7.4919652     0.754204   -6.7377612    1.0185758    0.5029284    3945.2548  0.018207237 
 1387000   -7.5120446   0.76571414   -6.7463305    0.9139502   0.51060374    3945.2548  0.019744818 
 1388000   -7.5233789   0.75512995    -6.768249   0.84244846   0.50354585    3945.2548   0.02066998 
 1389000   -7.5075267   0.74228755   -6.7652392   0.93041922   0.49498211    3945.2548  0.023767875 
 1390000   -7.5088295   0.75021778   -6.7586117   0.92122889   0.50027025    3945.2548  0.021105523 
 1391000   -7.4900511   0.75325453   -6.7367965     1.030899   0.50229526    3945.2548  0.021097437 
 1392000   -7.5061525   0.76695693   -6.7391956   0.95077366   0.51143247    3945.2548  0.020190586 
 1393000   -7.5035186   0.75079983   -6.7527188    0.9521962   0.50065839    3945.2548   0.01761065 
 1394000   -7.5146412    0.7489176   -6.7657236   0.89653355   0.49940325    3945.2548  0.017699958 
 1395000   -7.5254342   0.74742025   -6.7780139   0.83659583   0.49840477    3945.2548  0.016698423 
 1396000   -7.5080191   0.74437187   -6.7636472   0.91542042     0.496372    3945.2548  0.018612781 
 1397000   -7.4965132   0.74978685   -6.7467263   0.98178817    0.4999829    3945.2548   0.01685094 
 1398000   -7.5106765   0.75956081   -6.7511157   0.91064267    0.5065005    3945.2548  0.016537656 
 1399000   -7.5139152   0.75967803   -6.7542372   0.90276015   0.50657866    3945.2548  0.016468064 
 1400000     -7.50856   0.74429088   -6.7642691   0.91741967     0.496318    3945.2548  0.017844458 
 1401000   -7.5193507   0.74264364    -6.776707   0.86179622   0.49521957    3945.2548  0.017911925 
 1402000   -7.4995474   0.73546428   -6.7640832     0.960854   0.49043213    3945.2548  0.019865166 
 1403000    -7.509971   0.77259838   -6.7373726   0.92595317   0.51519439    3945.2548  0.017417162 
 1404000   -7.5021086    0.7563521   -6.7457565   0.96321352   0.50436082    3945.2548  0.017881079 
 1405000   -7.5139408    0.7485124   -6.7654284   0.88164102   0.49913305    3945.2548  0.017513404 
 1406000   -7.5175528    0.7452042   -6.7723486   0.86949038   0.49692703    3945.2548  0.018715593 
 1407000   -7.5155346   0.73102661    -6.784508   0.85947048   0.48747294    3945.2548   0.01656117 
 1408000   -7.5145087   0.73344952   -6.7810592   0.87583669   0.48908862    3945.2548   0.01800921 
 1409000   -7.5144522   0.75485012    -6.759602   0.89087888   0.50335926    3945.2548   0.02010251 
 1410000   -7.5172175   0.76526455    -6.751953   0.88246992   0.51030394    3945.2548  0.019306638 
 1411000   -7.5070845   0.75616189   -6.7509226   0.92676285   0.50423399    3945.2548  0.018086021 
 1412000   -7.5085662   0.76481565   -6.7437505   0.93152648    0.5100046    3945.2548  0.016878967 
 1413000   -7.5088504   0.75526474   -6.7535857   0.92350295   0.50363574    3945.2548  0.015876854 
 1414000   -7.5181784   0.74947589   -6.7687025   0.87622556   0.49977554    3945.2548  0.020752639 
 1415000   -7.5068324   0.73738845   -6.7694439   0.91566392   0.49171523    3945.2548  0.026096583 
 1416000   -7.5113963   0.76531189   -6.7460844   0.92171991   0.51033551    3945.2548    0.0275027 
 1417000   -7.5186518   0.76982028   -6.7488315   0.88548166   0.51334186    3945.2548  0.017728854 
 1418000   -7.5119726    0.7538936    -6.758079    0.9126655   0.50272141    3945.2548  0.018063084 
 1419000   -7.5179586   0.75417752   -6.7637811   0.87131105   0.50291074    3945.2548  0.019298056 
 1420000   -7.5185123    0.7403193    -6.778193   0.86062922   0.49366962    3945.2548  0.017843901 
 1421000   -7.5033949   0.75236762   -6.7510273   0.94693107   0.50170384    3945.2548  0.027286565 
 1422000   -7.5094848   0.76714274   -6.7423421   0.93349253   0.51155639    3945.2548  0.034525086 
 1423000   -7.5031015   0.74071397   -6.7623876   0.93979164    0.4939328    3945.2548  0.040520069 
 1424000    -7.516132   0.75108126   -6.7650508    0.8747065   0.50084605    3945.2548  0.039835862 
 1425000   -7.5084123   0.75094292   -6.7574694   0.92832568    0.5007538    3945.2548  0.038899711 
 1426000    -7.502463   0.74743024   -6.7550327   0.95262862   0.49841143    3945.2548  0.043341734 
 1427000   -7.5046893   0.75104871   -6.7536405    0.9403896   0.50082434    3945.2548  0.035026613 
 1428000   -7.5028709   0.74535755   -6.7575134   0.94831185   0.49702929    3945.2548  0.030108543 
 1429000   -7.5127773   0.74704741   -6.7657299   0.89453857   0.49815615    3945.2548  0.036253281 
 1430000   -7.5234124   0.73450403   -6.7889083   0.83207782    0.4897918    3945.2548  0.029983804 
 1431000   -7.5207564   0.74577947   -6.7749769   0.84992997   0.49731064    3945.2548  0.030497489 
 1432000   -7.4993071   0.74318444   -6.7561226   0.96861568   0.49558019    3945.2548  0.032972691 
 1433000   -7.4957409   0.74612676   -6.7496142    0.9936614   0.49754222    3945.2548  0.034972074 
 1434000   -7.4996513   0.75959578   -6.7400555   0.97142955   0.50652382    3945.2548  0.028668553 
 1435000   -7.4934437   0.76285228   -6.7305914    1.0100876   0.50869536    3945.2548  0.028528939 
 1436000   -7.5095154   0.74871388   -6.7608016   0.91508654    0.4992674    3945.2548  0.029851625 
 1437000   -7.5054202   0.73721526   -6.7682049   0.93251009   0.49159974    3945.2548  0.036374016 
 1438000   -7.5131806   0.75377376   -6.7594068    0.8973299    0.5026415    3945.2548  0.038233614 
 1439000   -7.4966126   0.75457505   -6.7420376   0.99636713   0.50317583    3945.2548  0.042696145 
 1440000    -7.501156   0.75631727   -6.7448388   0.96726207    0.5043376    3945.2548  0.041406185 
 1441000   -7.5098148   0.76110273   -6.7487121    0.9343353    0.5075287    3945.2548  0.036568833 
 1442000   -7.5108732   0.75217783   -6.7586953   0.90984599   0.50157728    3945.2548  0.045447034 
 1443000   -7.5118941   0.74391738   -6.7679767   0.90712618   0.49606894    3945.2548  0.060503942 
 1444000   -7.5178796    0.7541219   -6.7637577   0.86636237   0.50287365    3945.2548  0.066665331 
 1445000    -7.518418   0.76288469   -6.7555333   0.87534584   0.50871697    3945.2548  0.073022061 
 1446000   -7.4951236   0.74553994   -6.7495836    0.9892943   0.49715092    3945.2548  0.078174182 
 1447000   -7.4976714   0.75803012   -6.7396412   0.99757559   0.50547978    3945.2548  0.071667438 
 1448000    -7.506799   0.75001938   -6.7567797   0.93275635   0.50013795    3945.2548  0.064620368 
 1449000   -7.5097222   0.74395559   -6.7657666   0.91114264   0.49609442    3945.2548  0.068654628 
 1450000   -7.5155116   0.75047875   -6.7650328   0.88295222   0.50044428    3945.2548  0.073839491 
 1451000   -7.5080246    0.7636328   -6.7443918   0.93146616   0.50921584    3945.2548  0.073481314 
 1452000   -7.5031791   0.75783153   -6.7453476   0.96232006   0.50534735    3945.2548   0.06388801 
 1453000   -7.5017382   0.74890483   -6.7528333   0.96831295   0.49939474    3945.2548  0.060595269 
 1454000   -7.4980092   0.74859084   -6.7494183   0.98131742   0.49918536    3945.2548  0.064388157 
 1455000   -7.5134908   0.75759255   -6.7558983   0.90391507     0.505188    3945.2548  0.050165841 
 1456000   -7.5176235   0.75116172   -6.7664618   0.87929374    0.5008997    3945.2548  0.047561074 
 1457000   -7.5109762    0.7496667   -6.7613095   0.90872386   0.49990278    3945.2548  0.046574429 
 1458000   -7.5082725    0.7552558   -6.7530167   0.92791089   0.50362978    3945.2548  0.037819085 
 1459000   -7.5161694   0.75237021   -6.7637992   0.88025142   0.50170556    3945.2548   0.03296393 
 1460000   -7.5229289   0.75010317   -6.7728258   0.84426361   0.50019383    3945.2548  0.039706408 
 1461000   -7.5110565   0.74200184   -6.7690547   0.89837571   0.49479159    3945.2548  0.038364584 
 1462000   -7.4994926   0.74579281   -6.7536998   0.96357284   0.49731954    3945.2548  0.041818348 
 1463000    -7.515343   0.76403104    -6.751312   0.88680607    0.5094814    3945.2548  0.039436398 
 1464000   -7.5173945   0.74571565   -6.7716789   0.86990178   0.49726808    3945.2548  0.035685246 
 1465000   -7.5151325   0.73620046   -6.7789321   0.88343281   0.49092304    3945.2548  0.036041775 
 1466000   -7.5096078   0.73765924   -6.7719486   0.90230225    0.4918958    3945.2548  0.037430523 
 1467000   -7.4967872   0.74878684   -6.7480003   0.97721635   0.49931606    3945.2548  0.037335017 
 1468000   -7.5000209   0.76096105   -6.7390599   0.97898886   0.50743422    3945.2548  0.035154677 
 1469000   -7.5136757   0.75825462   -6.7554211   0.90005155   0.50562949    3945.2548  0.041001595 
 1470000   -7.5089085    0.7432515    -6.765657   0.90891591   0.49562491    3945.2548  0.035611984 
 1471000    -7.513343   0.74696165   -6.7663814    0.8977341   0.49809896    3945.2548   0.03742337 
 1472000   -7.5100393   0.75666613   -6.7533732   0.92717044   0.50457023    3945.2548  0.031456041 
 1473000   -7.4965832   0.74370622   -6.7528769    0.9883996   0.49592813    3945.2548  0.045040572 
 1474000    -7.508938   0.75890089   -6.7500372   0.93155949   0.50606044    3945.2548   0.03375264 
 1475000   -7.5116473   0.74921044   -6.7624369   0.91037682   0.49959852    3945.2548  0.034433092 
 1476000   -7.5208229    0.7418001   -6.7790228   0.85386376   0.49465707    3945.2548  0.042007699 
 1477000   -7.5225769   0.74532048   -6.7772564   0.84386577   0.49700457    3945.2548   0.04084405 
 1478000   -7.5173903   0.76595028   -6.7514401   0.88176417   0.51076121    3945.2548  0.039804122 
 1479000   -7.5026333   0.74976729    -6.752866   0.95258255   0.49996985    3945.2548  0.035608456 
 1480000   -7.5131315   0.75165678   -6.7614747   0.90510355   0.50122983    3945.2548  0.038473584 
 1481000   -7.5087188   0.74089225   -6.7678265   0.91569395   0.49405168    3945.2548  0.044018984 
 1482000   -7.5242794   0.74197711   -6.7823023   0.82627873    0.4947751    3945.2548  0.045580296 
 1483000   -7.5191573   0.74471966   -6.7744377   0.85473929   0.49660392    3945.2548  0.043692225 
 1484000   -7.5088206   0.75597736   -6.7528432   0.92529948   0.50411093    3945.2548  0.039388698 
 1485000   -7.5160252   0.75288277   -6.7631424   0.87993537   0.50204736    3945.2548  0.037258838 
 1486000    -7.532578   0.74545146   -6.7871265   0.78777453   0.49709191    3945.2548  0.041290083 
 1487000   -7.5258777   0.74590186   -6.7799759   0.82339886   0.49739225    3945.2548  0.038826679 
 1488000   -7.5137042   0.74931899   -6.7643852   0.89233329   0.49967091    3945.2548  0.038419886 
 1489000   -7.5183119   0.76037535   -6.7579366   0.88103738   0.50704366    3945.2548  0.047862813 
 1490000    -7.488032    0.7575194   -6.7305126    1.0397142   0.50513922    3945.2548  0.053239624 
 1491000   -7.5085326   0.76471358    -6.743819   0.93472604   0.50993654    3945.2548  0.044037926 
 1492000   -7.5067477    0.7441782   -6.7625695   0.92042938   0.49624286    3945.2548  0.031885189 
 1493000   -7.5105425   0.73951838   -6.7710241    0.9082364   0.49313553    3945.2548  0.039842974 
 1494000   -7.5229357   0.75515399   -6.7677817   0.85277082   0.50356189    3945.2548  0.040308216 
 1495000   -7.5071891   0.74325614    -6.763933   0.92389665     0.495628    3945.2548  0.045799832 
 1496000   -7.5132443   0.75547545   -6.7577688   0.89686745   0.50377625    3945.2548  0.045059975 
 1497000   -7.5078608    0.7520001   -6.7558607   0.92742177   0.50145876    3945.2548  0.031514749 
 1498000   -7.5249998   0.76671071   -6.7582891    0.8426867   0.51126829    3945.2548  0.030411395 
 1499000   -7.5162191   0.74409733   -6.7721218   0.88916659   0.49618893    3945.2548  0.035301831 
 1500000   -7.5220769   0.73368109   -6.7883958   0.83848092   0.48924304    3945.2548  0.034473313 
Loop time of 1569.5 on 2 procs for 400000 steps with 4000 atoms

Performance: 110098.652 tau/day, 254.858 timesteps/s
99.3% CPU use with 2 MPI tasks x no OpenMP threads

MPI task timing breakdown:
Section |  min time  |  avg time  |  max time  |%varavg| %total
---------------------------------------------------------------
Pair    | 1373       | 1373.9     | 1374.8     |   2.4 | 87.54
Neigh   | 137.67     | 137.69     | 137.72     |   0.2 |  8.77
Comm    | 35.811     | 36.691     | 37.572     |  14.5 |  2.34
Output  | 0.73555    | 0.73749    | 0.73942    |   0.2 |  0.05
Modify  | 16.266     | 16.272     | 16.279     |   0.2 |  1.04
Other   |            | 4.19       |            |       |  0.27

Nlocal:    2000 ave 2003 max 1997 min
Histogram: 1 0 0 0 0 0 0 0 0 1
Nghost:    6608.5 ave 6617 max 6600 min
Histogram: 1 0 0 0 0 0 0 0 0 1
Neighs:    230817 ave 231478 max 230156 min
Histogram: 1 0 0 0 0 0 0 0 0 1

Total # of neighbors = 461634
Ave neighs/atom = 115.409
Neighbor list builds = 20000
Dangerous builds not checked
unfix     intnvt
unfix     rdfnvt
uncompute rdfnvt
uncompute msd
undump    idnvt

next      a
jump      in.melt temploop #it will again transfer the call to label temploop line
variable    a loop 11   #loop parameter defined
variable    temp equal 0.3+($a-1)*0.1   #temp value will increase at rate of 0.1 from 0.3 till 1.3
variable    temp equal 0.3+(4-1)*0.1   

log       log.lammps.npt.${temp}
log       log.lammps.npt.0.6
