thermo    ${nthermo}
thermo    1000
thermo_style custom step pe ke etotal press temp vol c_msd[4]
dump      idnvt all atom 1000 out.dump.nvt.${temp}.lammpstrj
dump      idnvt all atom 1000 out.dump.nvt.0.3.lammpstrj
restart   100000 restartnpt1.data restartnp2.data

fix       intnvt all nvt temp ${temp} ${temp} ${tdamp}
fix       intnvt all nvt temp 0.3 ${temp} ${tdamp}
fix       intnvt all nvt temp 0.3 0.3 ${tdamp}
fix       intnvt all nvt temp 0.3 0.3 1
run       400000
Neighbor list info ...
  update every 20 steps, delay 0 steps, check no
  max neighbors/atom: 2000, page size: 100000
  master list distance cutoff = 3.8
  ghost atom cutoff = 3.8
  binsize = 1.9, bins = 9 9 9
  2 neighbor lists, perpetual/occasional/extra = 1 1 0
  (1) pair lj/cut, perpetual
      attributes: half, newton on
      pair build: half/bin/atomonly/newton
      stencil: half/bin/3d/newton
      bin: standard
  (2) compute rdf, occasional, copy from (1)
      attributes: half, newton on
      pair build: copy
      stencil: none
      bin: none
Per MPI rank memory allocation (min/avg/max) = 5.127 | 5.127 | 5.127 Mbytes
Step PotEng KinEng TotEng Press Temp Volume c_msd[4] 
  100000   -7.5687862    0.4475296   -7.1212566    1.0108008   0.29842767     3911.672            0 
  101000    -7.596938   0.46064758   -7.1362905   0.87329678   0.30717518     3911.672  0.011772899 
  102000   -7.6005725   0.44844685   -7.1521257   0.84611223   0.29903933     3911.672  0.019726013 
  103000   -7.5953041   0.44584353   -7.1494606   0.86370331   0.29730334     3911.672  0.020926744 
  104000   -7.6069067   0.45717102   -7.1497357   0.80759667   0.30485689     3911.672  0.020625152 
  105000   -7.6059495   0.45925712   -7.1466924    0.8186391   0.30624797     3911.672  0.024575258 
  106000   -7.6058574   0.44594115   -7.1599162   0.80606711   0.29736844     3911.672   0.03844327 
  107000     -7.62206   0.45578341   -7.1662765   0.72304898   0.30393159     3911.672  0.052282819 
  108000   -7.6310647   0.45543717   -7.1756275   0.67669538    0.3037007     3911.672   0.04670619 
  109000   -7.6349822   0.45427873   -7.1807034   0.65033162   0.30292822     3911.672  0.045240833 
  110000   -7.6431769   0.45478993    -7.188387   0.59015537    0.3032691     3911.672  0.050978178 
  111000   -7.6571372   0.45620461   -7.2009326   0.53478452   0.30421246     3911.672  0.058487729 
  112000   -7.6567708   0.44664163   -7.2101291   0.50953566   0.29783554     3911.672  0.049532237 
  113000   -7.6677045   0.46027088   -7.2074336   0.46708856   0.30692399     3911.672  0.051709572 
  114000   -7.6510413   0.45536951   -7.1956718   0.56599955   0.30365559     3911.672  0.047701957 
  115000   -7.6501339   0.45239688    -7.197737   0.54540206   0.30167334     3911.672  0.042210529 
  116000   -7.6658704   0.44683376   -7.2190366   0.46633347   0.29796366     3911.672  0.042176439 
  117000   -7.6639502   0.45349014   -7.2104601   0.48110949   0.30240236     3911.672  0.038806482 
  118000   -7.6567064   0.45148695   -7.2052195   0.51415234   0.30106657     3911.672  0.038342583 
  119000   -7.6647678   0.46007325   -7.2046946   0.47209203    0.3067922     3911.672  0.034042644 
  120000   -7.6647331   0.44729104    -7.217442   0.46588204    0.2982686     3911.672  0.033583243 
  121000   -7.6646464   0.44190186   -7.2227445   0.46347054   0.29467491     3911.672  0.032950992 
  122000   -7.6649969    0.4478878   -7.2171091   0.46433085   0.29866654     3911.672  0.028322024 
  123000   -7.6603684   0.45162265   -7.2087458    0.4976121   0.30115706     3911.672  0.027334844 
  124000   -7.6616172   0.46383662   -7.1977805    0.4902928   0.30930174     3911.672  0.025022282 
  125000   -7.6601907   0.44975456   -7.2104362   0.48627602   0.29991135     3911.672  0.023597445 
  126000   -7.6653861   0.44829803   -7.2170881    0.4684427   0.29894009     3911.672  0.024601452 
  127000   -7.6738923   0.45019585   -7.2236965   0.42994533   0.30020562     3911.672  0.023091912 
  128000    -7.666734   0.44498314   -7.2217509   0.46600827   0.29672961     3911.672  0.020990245 
  129000   -7.6635811    0.4482087   -7.2153724    0.4638586   0.29888052     3911.672  0.023002531 
  130000   -7.6642914   0.45044648   -7.2138449   0.47540988   0.30037275     3911.672  0.019974398 
  131000    -7.667973   0.45694045   -7.2110326    0.4698527   0.30470314     3911.672  0.020225579 
  132000   -7.6710727   0.45351346   -7.2175592   0.44606102   0.30241791     3911.672  0.020613534 
  133000    -7.673809   0.45008116   -7.2237278   0.42484426   0.30012914     3911.672  0.018172385 
  134000   -7.6746608   0.44113821   -7.2335226   0.41111237   0.29416568     3911.672  0.018062093 
  135000    -7.666306   0.45798481   -7.2083212   0.48000357   0.30539955     3911.672  0.017101015 
  136000   -7.6562693   0.44887795   -7.2073913   0.51285034    0.2993268     3911.672  0.016370076 
  137000   -7.6675717    0.4355513   -7.2320204     0.463174   0.29044014     3911.672  0.017464216 
  138000    -7.667749   0.44739265   -7.2203563    0.4500674   0.29833635     3911.672  0.015733373 
  139000   -7.6641024   0.45114329   -7.2129591   0.47326235    0.3008374     3911.672  0.015882641 
  140000   -7.6623957   0.45754817   -7.2048476   0.48810816   0.30510839     3911.672  0.016070282 
  141000   -7.6739132   0.45881608   -7.2150971   0.42561217   0.30595387     3911.672  0.015866509 
  142000   -7.6740645   0.45242062   -7.2216439   0.43172419   0.30168917     3911.672   0.01913975 
  143000   -7.6767596   0.44919086   -7.2275688   0.40192717   0.29953546     3911.672  0.018678211 
  144000   -7.6640703   0.45260699   -7.2114633   0.46790126   0.30181345     3911.672  0.018798278 
  145000   -7.6618213    0.4569283    -7.204893   0.49099933   0.30469504     3911.672  0.016968903 
  146000   -7.6546659   0.45767006   -7.1969958   0.54118679   0.30518967     3911.672  0.018120344 
  147000    -7.667096   0.45452808    -7.212568   0.45225668   0.30309449     3911.672  0.016496004 
  148000   -7.6637725   0.44737941   -7.2163931    0.4816385   0.29832752     3911.672  0.016867059 
  149000   -7.6614437   0.45632425   -7.2051194   0.49203041   0.30429224     3911.672   0.01709235 
  150000   -7.6654202   0.45474733   -7.2106728   0.45962835    0.3032407     3911.672  0.017624401 
  151000   -7.6622491   0.43775547   -7.2244936   0.47010581   0.29190996     3911.672  0.020007001 
  152000   -7.6676647   0.45349454   -7.2141702   0.44203598   0.30240529     3911.672  0.020082884 
  153000   -7.6700365   0.46008928   -7.2099472   0.44223657   0.30680289     3911.672  0.015939212 
  154000    -7.661714   0.44371049   -7.2180035    0.4760554   0.29588096     3911.672  0.018982299 
  155000   -7.6693107   0.43739926   -7.2319114   0.43452553   0.29167243     3911.672   0.02607843 
  156000   -7.6751252   0.44474425   -7.2303809   0.39760893   0.29657031     3911.672  0.039996484 
  157000   -7.6733919    0.4587096   -7.2146823   0.42128003   0.30588287     3911.672  0.046760444 
  158000   -7.6644382   0.45321134   -7.2112268   0.47115274   0.30221645     3911.672   0.04002111 
  159000    -7.660729   0.44739754   -7.2133315   0.49075228   0.29833961     3911.672  0.041080108 
  160000   -7.6790461   0.45184479   -7.2272013   0.39233236   0.30130519     3911.672   0.04948568 
  161000   -7.6833887   0.44556913   -7.2378195   0.36793714   0.29712036     3911.672  0.066198136 
  162000   -7.6973307   0.44232486   -7.2550058   0.28553608   0.29495698     3911.672   0.10332384 
  163000   -7.7023484   0.44517174   -7.2571767   0.25508935   0.29685537     3911.672   0.11492875 
  164000   -7.7110213   0.44072363   -7.2702977   0.19270864   0.29388923     3911.672   0.11649646 
  165000   -7.7226832     0.442014   -7.2806692   0.14502249   0.29474969     3911.672   0.13709289 
  166000   -7.7378794   0.45296719   -7.2849122  0.052899746   0.30205364     3911.672   0.14031463 
  167000   -7.7300131   0.44111719   -7.2888959  0.093197868   0.29415166     3911.672   0.14259784 
  168000   -7.7262636   0.45317687   -7.2730867   0.13125833   0.30219346     3911.672   0.13612859 
  169000   -7.7276649   0.45441671   -7.2732482   0.12684204   0.30302023     3911.672   0.13157749 
  170000   -7.7294771   0.45215509    -7.277322   0.10664656   0.30151211     3911.672   0.12899416 
  171000   -7.7317209   0.44172155   -7.2899993  0.087995428   0.29455468     3911.672   0.13165611 
  172000   -7.7284432   0.44481865   -7.2836245    0.1123415   0.29661992     3911.672   0.13001587 
  173000   -7.7304729   0.45325228   -7.2772207  0.095057655   0.30224375     3911.672    0.1299425 
  174000   -7.7233887   0.44577766   -7.2776111   0.12415597   0.29725942     3911.672   0.12974228 
  175000   -7.7265695   0.44141345    -7.285156   0.10068328   0.29434922     3911.672   0.12532727 
  176000   -7.7344691   0.45526829   -7.2792008  0.073232405   0.30358809     3911.672   0.11984818 
  177000   -7.7340671   0.46395342   -7.2701137   0.08594658   0.30937962     3911.672   0.12044754 
  178000   -7.7308093   0.44582079   -7.2849886  0.080324306   0.29728818     3911.672   0.11730407 
  179000   -7.7381096   0.44911723   -7.2889923  0.047603166   0.29948636     3911.672   0.11316632 
  180000   -7.7162338     0.443064   -7.2731698   0.16580345   0.29544987     3911.672   0.11192099 
  181000   -7.7197957   0.45285854   -7.2669372   0.13907345   0.30198119     3911.672   0.10972821 
  182000   -7.7307213   0.45664014   -7.2740811   0.09779416   0.30450288     3911.672   0.10507819 
  183000   -7.7312412   0.45297418   -7.2782671  0.090309204    0.3020583     3911.672   0.10282306 
  184000   -7.7358324   0.44956801   -7.2862644  0.060070678   0.29978695     3911.672   0.10403746 
  185000   -7.7330212   0.45490236   -7.2781189  0.075562707   0.30334408     3911.672  0.099640359 
  186000   -7.7247714    0.4479229   -7.2768485   0.12458179   0.29868994     3911.672  0.095699958 
  187000   -7.7284586   0.45150424   -7.2769544   0.11066191   0.30107809     3911.672   0.09573282 
  188000   -7.7333504   0.44684515   -7.2865052  0.062782624   0.29797126     3911.672  0.094796573 
  189000   -7.7340041   0.44925157   -7.2847525  0.078569953   0.29957594     3911.672  0.092254438 
  190000   -7.7328062   0.44760331   -7.2852029  0.077597124   0.29847683     3911.672  0.089829103 
  191000   -7.7347351   0.43980417   -7.2949309  0.056350611    0.2932761     3911.672   0.09206877 
  192000   -7.7330682   0.44434464   -7.2887236  0.069578936   0.29630384     3911.672  0.091989414 
  193000   -7.7342116   0.44792808   -7.2862835  0.075757735    0.2986934     3911.672  0.093299883 
  194000   -7.7290518   0.45824678   -7.2708051  0.083435002   0.30557425     3911.672  0.092852878 
  195000   -7.7321534   0.44645916   -7.2856942  0.065029016   0.29771387     3911.672  0.092015923 
  196000   -7.7411564      0.44898   -7.2921764  0.019460852   0.29939485     3911.672  0.094096187 
  197000   -7.7413452   0.44227623   -7.2990689  0.011466412   0.29492455     3911.672  0.087705477 
  198000   -7.7421409    0.4507401   -7.2914008  0.013960529   0.30056855     3911.672  0.085440187 
  199000   -7.7466174   0.45501102   -7.2916064 -0.00091736608   0.30341653     3911.672  0.089406323 
  200000   -7.7475251    0.4504422   -7.2970829 -0.029526252   0.30036989     3911.672  0.086240173 
  201000    -7.749461   0.44990775   -7.2995533 -0.020118937    0.3000135     3911.672  0.085554204 
  202000   -7.7433574   0.44260124   -7.3007561 0.0075748989   0.29514128     3911.672  0.083332205 
  203000   -7.7489754   0.44666294   -7.3023125 -0.022825119   0.29784975     3911.672  0.079672752 
  204000   -7.7483743   0.44415528    -7.304219 -0.021888178   0.29617756     3911.672  0.077918644 
  205000   -7.7359349    0.4435188   -7.2924161  0.052857904   0.29575314     3911.672  0.082030042 
  206000   -7.7416381   0.44810831   -7.2935298  0.012560059   0.29881358     3911.672  0.076122967 
  207000   -7.7457914   0.44389093   -7.3019004 0.00087579073   0.29600129     3911.672  0.077220622 
  208000   -7.7477851   0.44371252   -7.3040726 -0.016831554   0.29588232     3911.672  0.075944971 
  209000    -7.739809   0.44523003    -7.294579  0.017695088   0.29689424     3911.672  0.071906081 
  210000   -7.7432859   0.44924845   -7.2940375   0.02254011   0.29957386     3911.672  0.074128109 
  211000   -7.7407051   0.43689759   -7.3038075  0.018915958   0.29133789     3911.672   0.06976783 
  212000   -7.7492847   0.44795332   -7.3013314 -0.027747304   0.29871022     3911.672  0.072716096 
  213000    -7.746865   0.45414238   -7.2927226 -0.0059889028    0.3028373     3911.672  0.066079941 
  214000   -7.7367564   0.45018411   -7.2865723  0.050961923   0.30019779     3911.672  0.069338954 
  215000   -7.7413772   0.45991097   -7.2814662  0.029045661   0.30668398     3911.672  0.067041531 
  216000   -7.7421272   0.45001721     -7.29211  0.024965486   0.30008649     3911.672  0.066878658 
  217000   -7.7466255   0.44616308   -7.3004624 -0.0030880124   0.29751643     3911.672  0.065163589 
  218000   -7.7445968   0.43993784    -7.304659 -0.014432264   0.29336524     3911.672  0.065285694 
  219000   -7.7505193   0.44371667   -7.3068027  -0.03538514   0.29588508     3911.672  0.062120506 
  220000   -7.7415869   0.44814413   -7.2934428  0.017211941   0.29883746     3911.672  0.061941322 
  221000   -7.7444775   0.45307429   -7.2914032 -0.0018443122   0.30212506     3911.672   0.06018144 
  222000   -7.7364253   0.44298294   -7.2934424  0.037027951   0.29539581     3911.672  0.059805479 
  223000   -7.7517772   0.44051039   -7.3112668 -0.052149114   0.29374703     3911.672  0.059272368 
  224000   -7.7392885    0.4490883   -7.2902002  0.035294047   0.29946707     3911.672  0.056976161 
  225000   -7.7476815   0.45922457   -7.2884569 -0.0089072619   0.30622627     3911.672  0.057230983 
  226000   -7.7444561   0.46034433   -7.2841117  0.010353124   0.30697297     3911.672  0.057436736 
  227000   -7.7444138   0.44821708   -7.2961968   0.00997491   0.29888611     3911.672  0.055467524 
  228000   -7.7467965   0.45692566   -7.2898709 -0.0022727981   0.30469328     3911.672  0.055577041 
  229000   -7.7385659   0.45943022   -7.2791357   0.04195491   0.30636341     3911.672  0.056125111 
  230000   -7.7454123    0.4509946   -7.2944177 -0.0018307396   0.30073825     3911.672  0.053294856 
  231000   -7.7491677   0.45355992   -7.2956078   -0.0263779   0.30244889     3911.672  0.054477891 
  232000   -7.7450117   0.45110419   -7.2939075 0.0066959609   0.30081133     3911.672  0.051740498 
  233000   -7.7390264   0.45663739    -7.282389  0.025669335   0.30450105     3911.672  0.053087171 
  234000   -7.7334642   0.44968128   -7.2837829  0.072569122   0.29986249     3911.672  0.052561361 
  235000   -7.7343976   0.44758019   -7.2868174  0.051371563   0.29846141     3911.672  0.051773156 
  236000   -7.7449874   0.45146699   -7.2935204 -0.0059298917   0.30105326     3911.672  0.049582104 
  237000   -7.7372501   0.45037102   -7.2868791  0.052683956   0.30032243     3911.672  0.050706795 
  238000   -7.7482045   0.45493652    -7.293268 -0.015425249   0.30336685     3911.672  0.049879587 
  239000   -7.7438297   0.44458016   -7.2992496 0.00099608073   0.29646089     3911.672  0.047397377 
  240000   -7.7427941   0.45288096   -7.2899131  0.016943582   0.30199614     3911.672  0.046663519 
  241000   -7.7356994   0.44170043    -7.293999  0.042992202   0.29454059     3911.672  0.046325409 
  242000    -7.756537   0.45198496   -7.3045521 -0.066786109   0.30139866     3911.672  0.047556014 
  243000   -7.7453768   0.44776248   -7.2976143 -0.0010134801   0.29858297     3911.672  0.046158948 
  244000   -7.7344443   0.44834733   -7.2860969  0.046165825   0.29897296     3911.672  0.046525015 
  245000   -7.7375372   0.44536986   -7.2921673  0.033503901   0.29698749     3911.672  0.045515778 
  246000   -7.7434343   0.44832361   -7.2951107  0.011396588   0.29895714     3911.672  0.044702547 
  247000   -7.7586319   0.43843509   -7.3201968 -0.079813599   0.29236315     3911.672  0.045804387 
  248000   -7.7452618   0.45875908   -7.2865027 0.0013246006   0.30591587     3911.672  0.043299588 
  249000   -7.7464002   0.45367819    -7.292722 0.00065912766   0.30252776     3911.672  0.044937945 
  250000   -7.7431062   0.44651177   -7.2965944  0.017742283   0.29774895     3911.672  0.042481376 
  251000   -7.7522266   0.44011673   -7.3121099 -0.052226964   0.29348453     3911.672  0.043227059 
  252000   -7.7503431   0.44690159   -7.3034415 -0.025914154   0.29800889     3911.672  0.042426624 
  253000   -7.7430941   0.44307348   -7.3000206  0.009391371   0.29545618     3911.672  0.041131828 
  254000   -7.7383135    0.4506903   -7.2876232  0.035752255   0.30053534     3911.672  0.042052825 
  255000   -7.7319399   0.44570375   -7.2862361  0.070897031   0.29721014     3911.672  0.040942169 
  256000   -7.7484367   0.45354465    -7.294892  -0.01507663   0.30243871     3911.672  0.040155585 
  257000   -7.7484025   0.45532007   -7.2930825 -0.016121197   0.30362262     3911.672  0.038965884 
  258000   -7.7335431   0.44620868   -7.2873344  0.053648453   0.29754684     3911.672  0.041196859 
  259000   -7.7379657   0.45473347   -7.2832323  0.034638178   0.30323145     3911.672  0.044222595 
  260000   -7.7399875   0.46232065   -7.2776669  0.035333702   0.30829084     3911.672  0.042158156 
  261000   -7.7348989   0.44977467   -7.2851243  0.062750066   0.29992476     3911.672  0.037610165 
  262000   -7.7465674   0.44939483   -7.2971726 -0.010468331   0.29967147     3911.672  0.035717777 
  263000   -7.7442118   0.45635234   -7.2878594  0.014299775   0.30431097     3911.672  0.037185939 
  264000   -7.7403281   0.45142922   -7.2888989  0.025181838   0.30102807     3911.672  0.038400738 
  265000   -7.7449534   0.44920489   -7.2957485 -0.0040445924   0.29954481     3911.672  0.036286938 
  266000   -7.7583939   0.45479501   -7.3035989 -0.068417213   0.30327249     3911.672  0.035470798 
  267000   -7.7403313   0.44043595   -7.2998954  0.014645915   0.29369739     3911.672  0.036067345 
  268000   -7.7444301   0.44606156   -7.2983686 -0.0039514542   0.29744874     3911.672  0.034371425 
  269000   -7.7333565   0.44685729   -7.2864992   0.05870722   0.29797936     3911.672  0.034831967 
  270000   -7.7474079   0.46040453   -7.2870034 -0.0070020732   0.30701311     3911.672  0.035125073 
  271000   -7.7418804   0.44810848   -7.2937719  0.014676733   0.29881369     3911.672  0.034438799 
  272000   -7.7449051    0.4459629   -7.2989422 -0.0042771281   0.29738295     3911.672  0.033769039 
  273000   -7.7406756     0.447337   -7.2933386  0.023684864   0.29829924     3911.672  0.034185049 
  274000   -7.7421915   0.44935749    -7.292834  0.014442555   0.29964657     3911.672  0.034079921 
  275000   -7.7534056   0.45174394   -7.3016617 -0.041393512   0.30123794     3911.672  0.033887978 
  276000   -7.7426107   0.44803559   -7.2945752 0.0037916239   0.29876509     3911.672  0.032342509 
  277000    -7.733916   0.44681806   -7.2870979   0.05366247    0.2979532     3911.672  0.034756171 
  278000   -7.7304152   0.45574242   -7.2746728  0.088818882   0.30390426     3911.672  0.031881193 
  279000   -7.7389437    0.4459868   -7.2929569  0.034219055   0.29739888     3911.672   0.03355176 
  280000   -7.7432546    0.4465353   -7.2967193 0.0049585074   0.29776464     3911.672  0.034315926 
  281000   -7.7451628   0.44668698   -7.2984758 0.0044893671   0.29786578     3911.672  0.033874651 
  282000    -7.750386   0.45255714   -7.2978289 -0.036162148   0.30178021     3911.672  0.031329119 
  283000   -7.7436038   0.45063959   -7.2929642 0.0024142259   0.30050152     3911.672  0.031354536 
  284000   -7.7424125   0.45101745   -7.2913951  0.013808428   0.30075349     3911.672  0.033599845 
  285000    -7.743592   0.45127331   -7.2923187 0.0090044569    0.3009241     3911.672  0.031485474 
  286000   -7.7480758   0.44133246   -7.3067433 -0.030240053   0.29429521     3911.672  0.029726672 
  287000   -7.7474914   0.44475882   -7.3027326 -0.021567956   0.29658003     3911.672  0.031284589 
  288000    -7.745333   0.44366634   -7.3016666 -0.0089588088   0.29585153     3911.672  0.031678847 
  289000   -7.7470407   0.46053621   -7.2865045 -0.021816323   0.30710091     3911.672  0.030508664 
  290000   -7.7441751   0.45685072   -7.2873243 0.0045852716   0.30464331     3911.672  0.030373757 
  291000   -7.7409997   0.45931489   -7.2816848   0.02203902    0.3062865     3911.672  0.027475927 
  292000   -7.7434724   0.45533483   -7.2881376   0.01674283   0.30363246     3911.672  0.029276347 
  293000   -7.7519347   0.45238499   -7.2995498 -0.044065221   0.30166541     3911.672  0.029928826 
  294000    -7.740026    0.4482569   -7.2917691  0.034355795   0.29891266     3911.672  0.030175663 
  295000   -7.7383507   0.45669196   -7.2816588   0.03649064   0.30453744     3911.672  0.031347689 
  296000   -7.7448243   0.45891124   -7.2859131 0.0025706578   0.30601733     3911.672  0.033350318 
  297000    -7.746656   0.45013934   -7.2965167 -0.013035578   0.30016793     3911.672  0.031036446 
  298000   -7.7491007   0.46027861   -7.2888221 -0.017006109   0.30692914     3911.672  0.035723231 
  299000   -7.7458116   0.46105043   -7.2847612  0.010866277   0.30744381     3911.672  0.032935391 
  300000   -7.7361361   0.44879014   -7.2873459  0.045045873   0.29926825     3911.672  0.029911677 
  301000    -7.749491   0.44886933   -7.3006217 -0.037149844   0.29932105     3911.672  0.028621508 
  302000   -7.7496362   0.45283069   -7.2968055 -0.020672485   0.30196262     3911.672  0.028010111 
  303000   -7.7358587   0.44919081   -7.2866679  0.053887086   0.29953542     3911.672  0.029638293 
  304000   -7.7352992   0.45453906   -7.2807601  0.066459824   0.30310182     3911.672  0.028163842 
  305000   -7.7382315   0.44841294   -7.2898185  0.038186423   0.29901671     3911.672  0.028862339 
  306000   -7.7474049   0.44888374   -7.2985211 -0.0068326175   0.29933066     3911.672  0.030388711 
  307000   -7.7395668   0.43850974   -7.3010571   0.03515686   0.29241293     3911.672  0.028600943 
  308000   -7.7459653   0.44353575   -7.3024296 -0.0085697634   0.29576444     3911.672  0.028990339 
  309000   -7.7469057   0.45464726   -7.2922584 -0.0032644031   0.30317397     3911.672  0.027993682 
  310000    -7.742832   0.45189282   -7.2909392 0.0044425373   0.30133722     3911.672  0.027798842 
  311000   -7.7491811   0.45383442   -7.2953467 -0.025754684   0.30263194     3911.672  0.029178024 
  312000   -7.7567325   0.44352108   -7.3132114 -0.069530115   0.29575466     3911.672  0.028645896 
  313000   -7.7423055    0.4459206   -7.2963849  0.024093068   0.29735474     3911.672   0.02691584 
  314000   -7.7436322    0.4546497   -7.2889824 0.0055685497    0.3031756     3911.672  0.027920128 
  315000   -7.7324579   0.44642468   -7.2860332  0.068675229   0.29769088     3911.672  0.028286316 
  316000   -7.7383674   0.45874399   -7.2796234  0.044868191   0.30590581     3911.672  0.029615803 
  317000   -7.7355479   0.45308888    -7.282459  0.059515028   0.30213479     3911.672   0.02849105 
  318000    -7.746283   0.45339455   -7.2928885 -0.010504347   0.30233862     3911.672  0.027835607 
  319000   -7.7490597   0.45333729   -7.2957224 -0.025176746   0.30230044     3911.672  0.030631671 
  320000   -7.7505696   0.45238063   -7.2981889 -0.029111549    0.3016625     3911.672  0.034776013 
  321000   -7.7449413   0.44549793   -7.2994434 -0.0034965366   0.29707289     3911.672  0.028684167 
  322000   -7.7417351   0.44793996   -7.2937951  0.018464023   0.29870132     3911.672  0.028596886 
  323000    -7.741508   0.45007816   -7.2914298  0.017029212   0.30012714     3911.672  0.026872898 
  324000    -7.742809   0.45259003    -7.290219  0.010679928   0.30180214     3911.672   0.02797954 
  325000   -7.7388588   0.44172118   -7.2971376  0.028745037   0.29455443     3911.672  0.027270558 
  326000   -7.7483967   0.44721857   -7.3011782 -0.029785242   0.29822027     3911.672  0.026479436 
  327000   -7.7528179     0.454864   -7.2979539 -0.046828471   0.30331849     3911.672  0.026183542 
  328000    -7.742759   0.44783661   -7.2949224 0.0033243596    0.2986324     3911.672  0.026551955 
  329000   -7.7412449   0.46592549   -7.2753194  0.035516137   0.31069466     3911.672  0.028103899 
  330000   -7.7345188   0.44282471   -7.2916941  0.046993445   0.29529029     3911.672  0.026585644 
  331000   -7.7409527   0.44318269     -7.29777  0.021325147   0.29552901     3911.672  0.027018026 
  332000   -7.7485079   0.44701315   -7.3014948 -0.024317949   0.29808329     3911.672  0.027231451 
  333000   -7.7449739   0.45287159   -7.2921023 -0.0041969012   0.30198989     3911.672  0.024335246 
  334000   -7.7439221   0.45217764   -7.2917445 0.0077490884   0.30152714     3911.672   0.02388813 
  335000   -7.7443751   0.44845494   -7.2959201 -0.0014906867   0.29904472     3911.672  0.025851791 
  336000   -7.7408537   0.44155853   -7.2992952  0.018059999   0.29444596     3911.672  0.023021937 
  337000   -7.7473025   0.44833433   -7.2989681 -0.0031389779    0.2989643     3911.672  0.024333157 
  338000   -7.7491232   0.45439179   -7.2947314 -0.018513261   0.30300361     3911.672   0.02478566 
  339000   -7.7390774   0.45581467   -7.2832627   0.03591508   0.30395243     3911.672  0.025004677 
  340000   -7.7387686   0.45384311   -7.2849255  0.028093271   0.30263773     3911.672  0.025253944 
  341000    -7.742807   0.44445637   -7.2983506 0.0031550424   0.29637834     3911.672  0.024484821 
  342000   -7.7418959   0.44556435   -7.2963316 0.0086406893   0.29711718     3911.672  0.023900153 
  343000   -7.7407663   0.45629533    -7.284471  0.024318093   0.30427295     3911.672   0.02410466 
  344000   -7.7383847   0.44934306   -7.2890417  0.041544939   0.29963695     3911.672  0.024990784 
  345000   -7.7505336   0.44562921   -7.3049044 -0.039414633   0.29716043     3911.672  0.023665567 
  346000      -7.7557   0.44917299    -7.306527 -0.064950337   0.29952354     3911.672  0.023425026 
  347000   -7.7440624   0.44862561   -7.2954368 -0.0046436201   0.29915853     3911.672  0.023497866 
  348000   -7.7417507   0.45003846   -7.2917122 0.0096767544   0.30010066     3911.672  0.024133112 
  349000   -7.7413035   0.44571131   -7.2955922  0.006345642   0.29721518     3911.672  0.024535189 
  350000   -7.7554642   0.45242739   -7.3030368  -0.05913625   0.30169368     3911.672  0.023722654 
  351000   -7.7495782   0.43822127    -7.311357 -0.035397201   0.29222057     3911.672  0.023902008 
  352000   -7.7455549   0.44287275   -7.3026822 -0.017626186   0.29532233     3911.672  0.025482455 
  353000   -7.7454125   0.45129016   -7.2941224 -0.007970353   0.30093534     3911.672   0.02595254 
  354000   -7.7454583   0.45999207   -7.2854663 0.00044971838   0.30673806     3911.672  0.025667122 
  355000   -7.7472504   0.45204912   -7.2952013 -0.017826582   0.30144144     3911.672  0.024541424 
  356000   -7.7578024   0.45250944    -7.305293 -0.069659665    0.3017484     3911.672  0.024428896 
  357000   -7.7438531   0.44848669   -7.2953664  0.003633411   0.29906589     3911.672   0.02478676 
  358000   -7.7420029   0.45609254   -7.2859104  0.016089147   0.30413773     3911.672   0.02420128 
  359000   -7.7405438   0.44754664   -7.2929972  0.012817108   0.29843904     3911.672  0.023355582 
  360000   -7.7511636   0.44285731   -7.3083063 -0.040114515   0.29531203     3911.672  0.023622765 
  361000   -7.7628405   0.45222037   -7.3106201  -0.10604603   0.30155564     3911.672  0.024601496 
  362000    -7.748619   0.44544318   -7.3031758 -0.020872863   0.29703638     3911.672  0.025620821 
  363000   -7.7352629   0.44060938   -7.2946535  0.041212866   0.29381304     3911.672  0.024917143 
  364000   -7.7391795   0.45035015   -7.2888293  0.022112869   0.30030851     3911.672  0.025653478 
  365000   -7.7399897   0.45393364   -7.2860561   0.01954687    0.3026981     3911.672  0.025174429 
  366000   -7.7363639    0.4445835   -7.2917804   0.03273467   0.29646312     3911.672  0.022930127 
  367000   -7.7494832   0.45157684   -7.2979064 -0.030602681   0.30112651     3911.672  0.025856514 
  368000   -7.7503475   0.45420707   -7.2961404 -0.043696231   0.30288043     3911.672  0.028490915 
  369000     -7.73891   0.45403438   -7.2848756  0.020373988   0.30276528     3911.672  0.028460175 
  370000    -7.739565   0.45214133   -7.2874237  0.016600262   0.30150293     3911.672  0.030268869 
  371000   -7.7498772   0.44881677   -7.3010604 -0.048922093     0.299286     3911.672  0.029342258 
  372000   -7.7549712   0.45016943   -7.3048018 -0.080132992     0.300188     3911.672  0.029770109 
  373000   -7.7552415   0.44978775   -7.3054538 -0.079309887   0.29993349     3911.672  0.028811923 
  374000   -7.7477816   0.45342594   -7.2943556 -0.025729368   0.30235955     3911.672  0.028955029 
  375000   -7.7419894   0.45726503   -7.2847244  0.011046503   0.30491958     3911.672  0.030424581 
  376000   -7.7493398   0.45760346   -7.2917364 -0.030591349   0.30514526     3911.672  0.029417516 
  377000   -7.7508057   0.45022726   -7.3005785 -0.042548744   0.30022656     3911.672  0.029434544 
  378000   -7.7425776   0.44725832   -7.2953193 -0.013275894   0.29824678     3911.672  0.028851668 
  379000   -7.7420057   0.44853295   -7.2934728 -0.0030082791   0.29909674     3911.672  0.028739123 
  380000   -7.7319049   0.43832481   -7.2935801  0.046775638   0.29228961     3911.672  0.030090101 
  381000   -7.7446143   0.44755104   -7.2970632 -0.016544326   0.29844197     3911.672  0.028143856 
  382000   -7.7535379   0.44833024   -7.3052076 -0.067683285   0.29896157     3911.672  0.030486767 
  383000   -7.7459573   0.44289525    -7.303062 -0.028959346   0.29533734     3911.672  0.037280217 
  384000   -7.7491763   0.44324219   -7.3059341  -0.05409619   0.29556868     3911.672  0.037816879 
  385000   -7.7584852   0.44910228   -7.3093829 -0.084223996   0.29947639     3911.672  0.047482323 
  386000   -7.7602882   0.45339048   -7.3068977  -0.10779649   0.30233591     3911.672  0.057929464 
  387000    -7.752723    0.4618199   -7.2909031 -0.030217956   0.30795692     3911.672  0.063344328 
  388000   -7.7722698   0.44625278    -7.326017  -0.14811437   0.29757625     3911.672   0.06496211 
  389000   -7.7726691   0.44999337   -7.3226757  -0.15826517    0.3000706     3911.672  0.062248731 
  390000   -7.7758227   0.45359013   -7.3222325  -0.17777458   0.30246904     3911.672  0.061743804 
  391000   -7.7654235   0.44914558    -7.316278  -0.11702688   0.29950526     3911.672  0.062306104 
  392000    -7.766097   0.44829263   -7.3178044  -0.12442693   0.29893649     3911.672  0.060729855 
  393000   -7.7728032   0.44792075   -7.3248825  -0.16990613   0.29868851     3911.672  0.059956124 
  394000   -7.7836334   0.46066388   -7.3229695  -0.20604199   0.30718605     3911.672   0.06188319 
  395000   -7.7682207   0.45331787   -7.3149028  -0.12571201   0.30228749     3911.672  0.067541463 
  396000   -7.7665611   0.44506376   -7.3214973  -0.11188215   0.29678337     3911.672  0.065672293 
  397000   -7.7798041   0.45068655   -7.3291176  -0.20110368   0.30053284     3911.672  0.066337907 
  398000   -7.7753678   0.44112533   -7.3342424   -0.1867837   0.29415709     3911.672  0.066676931 
  399000   -7.7753814   0.45214521   -7.3232362  -0.16931288   0.30150551     3911.672  0.065963956 
  400000   -7.7819285   0.45662731   -7.3253012  -0.19160944   0.30449433     3911.672  0.063164888 
  401000   -7.7717775   0.44534504   -7.3264325  -0.14980907   0.29697094     3911.672  0.062878964 
  402000    -7.788729    0.4544535   -7.3342755  -0.23958547   0.30304476     3911.672  0.065553286 
  403000   -7.7813204   0.45057936   -7.3307411  -0.20269828   0.30046136     3911.672  0.065725833 
  404000   -7.7788561   0.45283776   -7.3260183  -0.17804931   0.30196733     3911.672  0.065313384 
  405000   -7.7751861   0.45439993   -7.3207862  -0.16610561   0.30300904     3911.672  0.065743673 
  406000   -7.7745247    0.4649003   -7.3096244  -0.14784607   0.31001104     3911.672  0.064752264 
  407000   -7.7847672   0.44817671   -7.3365905  -0.21500672   0.29885919     3911.672  0.063317345 
  408000   -7.7837889   0.44941904   -7.3343699  -0.19993394   0.29968762     3911.672  0.067689795 
  409000   -7.7755885   0.44841472   -7.3271738  -0.16728679    0.2990179     3911.672  0.063736101 
  410000   -7.7753549   0.45838425   -7.3169707  -0.17010624   0.30566591     3911.672  0.064886393 
  411000    -7.778549   0.45718542   -7.3213636  -0.18128717   0.30486649     3911.672  0.062712184 
  412000    -7.775213   0.45089862   -7.3243144  -0.16849216   0.30067425     3911.672  0.062732118 
  413000    -7.779589   0.44535692   -7.3342321  -0.17993336   0.29697886     3911.672  0.065712299 
  414000   -7.7852679    0.4411955   -7.3440724  -0.22143785   0.29420388     3911.672  0.063789513 
  415000   -7.7914908   0.44965197   -7.3418388   -0.2720257   0.29984294     3911.672  0.062751213 
  416000   -7.7777801   0.44700772   -7.3307723  -0.18931149   0.29807967     3911.672  0.065333406 
  417000   -7.7832508   0.45963516   -7.3236156  -0.21402354   0.30650006     3911.672  0.064612008 
  418000   -7.7768627    0.4586623   -7.3182004  -0.17363573   0.30585133     3911.672  0.064540946 
  419000   -7.7758535    0.4530684   -7.3227851  -0.16013055   0.30212113     3911.672  0.061621088 
  420000    -7.788318   0.45286087   -7.3354572  -0.22343839   0.30198274     3911.672  0.060101269 
  421000   -7.7868923   0.44616203   -7.3407303   -0.2477332   0.29751573     3911.672  0.060738721 
  422000   -7.7869794   0.45477732   -7.3322021  -0.24018762   0.30326069     3911.672  0.063434385 
  423000   -7.7793217   0.45366741   -7.3256543  -0.17959883   0.30252057     3911.672  0.062876624 
  424000   -7.7877586   0.45738783   -7.3303708  -0.24060634   0.30500147     3911.672  0.061906786 
  425000   -7.7834823   0.44541377   -7.3380686  -0.20854832   0.29701677     3911.672  0.061058015 
  426000    -7.782272   0.44632178   -7.3359502  -0.21124468   0.29762226     3911.672  0.060430882 
  427000   -7.7879823   0.45772355   -7.3302588  -0.23635931   0.30522534     3911.672  0.063292635 
  428000   -7.7805797   0.46048736   -7.3200923  -0.18923545   0.30706834     3911.672  0.063491883 
  429000   -7.7725237   0.45053369     -7.32199  -0.16590861    0.3004309     3911.672  0.062184829 
  430000    -7.787623   0.45324395   -7.3343791  -0.23743627   0.30223819     3911.672  0.061025304 
  431000   -7.7947733   0.45556916   -7.3392042  -0.28487618   0.30378872     3911.672  0.064490026 
  432000   -7.7935242   0.45020332   -7.3433209  -0.28080583    0.3002106     3911.672   0.06308208 
  433000   -7.7883426   0.43611232   -7.3522302  -0.25590111   0.29081425     3911.672  0.067591132 
  434000   -7.7898834   0.45081606   -7.3390673  -0.25777704   0.30061919     3911.672  0.066653931 
  435000   -7.7916215   0.45897856   -7.3326429  -0.26691772   0.30606222     3911.672  0.065404278 
  436000   -7.7884788   0.45781517   -7.3306636  -0.24910085   0.30528644     3911.672  0.062482498 
  437000   -7.7773577    0.4412575   -7.3361002  -0.20571689   0.29424523     3911.672  0.058061163 
  438000   -7.7800357   0.43667072   -7.3433649  -0.21350036   0.29118661     3911.672  0.060196179 
  439000   -7.7908099   0.45141448   -7.3393954  -0.26261366   0.30101824     3911.672   0.06323807 
  440000     -7.78189   0.44399657   -7.3378934  -0.21704292   0.29607173     3911.672  0.065921225 
  441000   -7.7850811   0.44944142   -7.3356397  -0.24030525   0.29970254     3911.672  0.063309742 
  442000   -7.7754778   0.44844368   -7.3270342  -0.18580342   0.29903721     3911.672  0.061779724 
  443000   -7.7766113   0.45895191   -7.3176594  -0.18635256   0.30604445     3911.672  0.059087062 
  444000   -7.7827911   0.45786873   -7.3249224  -0.21062375   0.30532215     3911.672  0.058238675 
  445000    -7.783431   0.45498785   -7.3284432  -0.21962225   0.30340109     3911.672   0.06382745 
  446000   -7.7802844   0.44209215   -7.3381923  -0.21192416    0.2948018     3911.672  0.067137951 
  447000   -7.7986856   0.45136063   -7.3473249  -0.31264449   0.30098233     3911.672  0.066944557 
  448000   -7.7890483   0.44556408   -7.3434842  -0.25785018     0.297117     3911.672  0.059987935 
  449000   -7.7850333   0.45003786   -7.3349955  -0.23888172   0.30010026     3911.672  0.065714105 
  450000   -7.7847794   0.45659924   -7.3281802  -0.23608312   0.30447561     3911.672  0.066740582 
  451000   -7.7734874   0.44900269   -7.3244847  -0.17037777   0.29940998     3911.672  0.066122013 
  452000   -7.7796663   0.46010809   -7.3195582  -0.19684352   0.30681543     3911.672  0.063221654 
  453000   -7.7820852   0.44741855   -7.3346666  -0.22101052   0.29835362     3911.672    0.0590527 
  454000   -7.7802717   0.44376517   -7.3365065  -0.21739625   0.29591742     3911.672  0.055827845 
  455000   -7.7856334   0.44645597   -7.3391774  -0.24681634   0.29771174     3911.672   0.05802254 
  456000   -7.7770871   0.44887074   -7.3282164   -0.1881401   0.29932199     3911.672  0.056953958 
  457000   -7.7869499   0.46303338   -7.3239165  -0.22820506   0.30876611     3911.672  0.057300674 
  458000   -7.7752378   0.44785333   -7.3273845  -0.18373428   0.29864355     3911.672  0.058207515 
  459000   -7.7802895   0.44519386   -7.3350956  -0.21954423   0.29687013     3911.672  0.057005962 
  460000   -7.7931692   0.44891919   -7.3442501  -0.27170688    0.2993543     3911.672  0.063477637 
  461000    -7.789102   0.44928317   -7.3398188  -0.25594501   0.29959701     3911.672   0.05715307 
  462000   -7.7794184   0.44721203   -7.3322063  -0.19468065   0.29821591     3911.672  0.060789614 
  463000   -7.7819384   0.45234147    -7.329597  -0.21487397   0.30163639     3911.672  0.053192202 
  464000   -7.7756518   0.45287018   -7.3227816   -0.1890655   0.30198895     3911.672  0.052711194 
  465000   -7.7890632   0.45334097   -7.3357222   -0.2495148   0.30230289     3911.672  0.062421093 
  466000   -7.7929434   0.45375764   -7.3391858  -0.28229074   0.30258074     3911.672  0.057815387 
  467000   -7.7858847    0.4424951   -7.3433896  -0.25126371    0.2950705     3911.672  0.053269243 
  468000    -7.782409    0.4484162   -7.3339928    -0.217335   0.29901889     3911.672  0.051293846 
  469000   -7.7784544   0.46150958   -7.3169448  -0.19614204   0.30774999     3911.672  0.049027808 
  470000    -7.783139   0.45701676   -7.3261222  -0.22043558   0.30475403     3911.672  0.051326566 
  471000   -7.7826252   0.44996646   -7.3326587  -0.21158308   0.30005265     3911.672  0.053106453 
  472000   -7.7928628   0.45059472   -7.3422681  -0.28579038    0.3004716     3911.672   0.04700284 
  473000   -7.7889963   0.44941664   -7.3395796   -0.2576975   0.29968602     3911.672  0.050318277 
  474000    -7.788455     0.451708    -7.336747  -0.25434716   0.30121397     3911.672  0.049219336 
  475000   -7.7786307   0.44654104   -7.3320897  -0.20744383   0.29776847     3911.672  0.047824234 
  476000   -7.7892933    0.4534185   -7.3358748  -0.25384822   0.30235459     3911.672  0.048208807 
  477000   -7.7915032   0.44627471   -7.3452285  -0.28014453   0.29759087     3911.672  0.049330179 
  478000    -7.786459   0.44999051   -7.3364685  -0.24924917   0.30006869     3911.672  0.047181783 
  479000    -7.780672   0.45515824   -7.3255138  -0.19731154   0.30351471     3911.672  0.048742991 
  480000   -7.7854987   0.45368531   -7.3318134  -0.23245878   0.30253251     3911.672  0.048433994 
  481000   -7.7823349   0.44776027   -7.3345746  -0.21633108   0.29858149     3911.672  0.047535484 
  482000   -7.7916915   0.43425309   -7.3574384  -0.28285707   0.28957445     3911.672  0.047491868 
  483000    -7.778151   0.45053778   -7.3276132  -0.19751153   0.30043363     3911.672  0.048404962 
  484000   -7.7809208   0.45030318   -7.3306176   -0.2040094   0.30027719     3911.672  0.050784364 
  485000   -7.7856557   0.43754052   -7.3481152  -0.24615285   0.29176662     3911.672  0.050876554 
  486000   -7.7969926   0.44670197   -7.3502907  -0.30364423   0.29787578     3911.672  0.047483102 
  487000    -7.790938   0.44775389   -7.3431841  -0.27433504   0.29857724     3911.672  0.048026989 
  488000   -7.7879074    0.4489055   -7.3390019  -0.25387084   0.29934517     3911.672  0.051090115 
  489000   -7.7774945   0.45874934   -7.3187452  -0.18692987   0.30590937     3911.672  0.050519137 
  490000   -7.7840393   0.45240924   -7.3316301  -0.21832466   0.30168158     3911.672  0.048992769 
  491000   -7.7873477   0.45106157   -7.3362861  -0.24656144   0.30078291     3911.672  0.050393313 
  492000   -7.7945276    0.4504675   -7.3440601  -0.27370587   0.30038676     3911.672  0.048857971 
  493000   -7.7844814   0.45025791   -7.3342235  -0.21126991     0.300247     3911.672  0.048181088 
  494000   -7.7886156   0.45894773   -7.3296679  -0.22748684   0.30604166     3911.672  0.046727856 
  495000   -7.7858117   0.44254328   -7.3432685  -0.22565565   0.29510263     3911.672   0.04653204 
  496000   -7.7951172   0.45064962   -7.3444676  -0.26435445    0.3005082     3911.672  0.050485458 
  497000   -7.7768993      0.44208   -7.3348193  -0.18996959    0.2947937     3911.672  0.047782066 
  498000   -7.7831822   0.45605199   -7.3271302  -0.20801183   0.30411069     3911.672   0.04760446 
  499000   -7.7832001   0.44705661   -7.3361435  -0.22485738   0.29811227     3911.672  0.047278437 
  500000   -7.7984687   0.44452683   -7.3539418  -0.28965184   0.29642532     3911.672  0.048797497 
Loop time of 2635.14 on 2 procs for 400000 steps with 4000 atoms

Performance: 65575.358 tau/day, 151.795 timesteps/s
99.2% CPU use with 2 MPI tasks x no OpenMP threads

MPI task timing breakdown:
Section |  min time  |  avg time  |  max time  |%varavg| %total
---------------------------------------------------------------
Pair    | 2293.2     | 2293.7     | 2294.2     |   1.0 | 87.04
Neigh   | 227.79     | 228.03     | 228.27     |   1.6 |  8.65
Comm    | 75.846     | 76.618     | 77.39      |   8.8 |  2.91
Output  | 1.2338     | 1.2364     | 1.239      |   0.2 |  0.05
Modify  | 28.391     | 28.465     | 28.538     |   1.4 |  1.08
Other   |            | 7.091      |            |       |  0.27

Nlocal:    2000 ave 2002 max 1998 min
Histogram: 1 0 0 0 0 0 0 0 0 1
Nghost:    6620.5 ave 6621 max 6620 min
Histogram: 1 0 0 0 0 0 0 0 0 1
Neighs:    232865 ave 233290 max 232440 min
Histogram: 1 0 0 0 0 0 0 0 0 1

Total # of neighbors = 465730
Ave neighs/atom = 116.433
Neighbor list builds = 20000
Dangerous builds not checked
unfix     intnvt
unfix     rdfnvt
uncompute rdfnvt
uncompute msd
undump    idnvt

next      a
jump      in.melt temploop #it will again transfer the call to label temploop line
variable    a loop 11   #loop parameter defined
variable    temp equal 0.3+($a-1)*0.1   #temp value will increase at rate of 0.1 from 0.3 till 1.3
variable    temp equal 0.3+(2-1)*0.1   

log       log.lammps.npt.${temp}
log       log.lammps.npt.0.4
