thermo    ${nthermo}
thermo    1000
thermo_style custom step pe ke etotal press temp vol c_msd[4]
dump      idnvt all atom 1000 out.dump.nvt.${temp}.lammpstrj
dump      idnvt all atom 1000 out.dump.nvt.1.1.lammpstrj
restart   100000 restartnpt1.data restartnp2.data

fix       intnvt all nvt temp ${temp} ${temp} ${tdamp}
fix       intnvt all nvt temp 1.1 ${temp} ${tdamp}
fix       intnvt all nvt temp 1.1 1.1 ${tdamp}
fix       intnvt all nvt temp 1.1 1.1 1
run       400000
Neighbor list info ...
  update every 20 steps, delay 0 steps, check no
  max neighbors/atom: 2000, page size: 100000
  master list distance cutoff = 3.8
  ghost atom cutoff = 3.8
  binsize = 1.9, bins = 10 10 10
  2 neighbor lists, perpetual/occasional/extra = 1 1 0
  (1) pair lj/cut, perpetual
      attributes: half, newton on
      pair build: half/bin/atomonly/newton
      stencil: half/bin/3d/newton
      bin: standard
  (2) compute rdf, occasional, copy from (1)
      attributes: half, newton on
      pair build: copy
      stencil: none
      bin: none
Per MPI rank memory allocation (min/avg/max) = 4.74 | 4.74 | 4.74 Mbytes
Step PotEng KinEng TotEng Press Temp Volume c_msd[4] 
 4100000    -4.967339    1.6399133   -3.3274257   0.91381781    1.0935489    5380.7933            0 
 4101000   -4.9623447    1.6353192   -3.3270256   0.91063912    1.0904854    5380.7933      1.31668 
 4102000   -4.9611827    1.6122869   -3.3488958   0.91611583    1.0751267    5380.7933    2.5166583 
 4103000   -4.9657408    1.6525639   -3.3131769   0.87898527    1.1019848    5380.7933    3.5688683 
 4104000   -4.9491884    1.6591902   -3.2899982   0.98066925    1.1064034    5380.7933    4.6276909 
 4105000    -4.958682    1.6799073   -3.2787747    0.9140307    1.1202183    5380.7933    5.6975062 
 4106000   -4.9492565     1.671807   -3.2774495   0.98192848    1.1148167    5380.7933    6.5791709 
 4107000   -4.9491188    1.6486798   -3.3004389   0.99407326    1.0993947    5380.7933    7.6541747 
 4108000   -4.9809451    1.6851626   -3.2957824   0.83900094    1.1237227    5380.7933    8.9522569 
 4109000   -4.9418932    1.6762927   -3.2656005    1.0249906    1.1178079    5380.7933    10.012915 
 4110000   -4.9545509    1.6746542   -3.2798967    1.0249267    1.1167153    5380.7933    10.950052 
 4111000   -4.9362839    1.6446661   -3.2916177    1.0510588    1.0967183    5380.7933    11.755495 
 4112000   -4.9560871    1.6219412   -3.3341459      0.92004    1.0815645    5380.7933    12.885657 
 4113000   -4.9739269     1.628935   -3.3449918   0.87533209    1.0862283    5380.7933    13.992708 
 4114000    -4.928364    1.5745219   -3.3538422    1.0171209    1.0499437    5380.7933    14.998814 
 4115000    -4.975802    1.6139256   -3.3618765   0.87497927    1.0762194    5380.7933    15.940901 
 4116000    -4.952819    1.6610211   -3.2917979    1.0293525    1.1076243    5380.7933    17.139711 
 4117000   -4.9762975    1.6725703   -3.3037272   0.86687678    1.1153257    5380.7933     18.17302 
 4118000   -4.9609152    1.6446467   -3.3162685   0.97227651    1.0967053    5380.7933    19.252442 
 4119000    -4.957884    1.6201389   -3.3377452   0.87051862    1.0803627    5380.7933    20.202466 
 4120000   -4.9757958    1.6540193   -3.3217765   0.85069886    1.1029553    5380.7933    21.121375 
 4121000   -4.9632648    1.6423203   -3.3209445   0.93709521     1.095154    5380.7933    21.858442 
 4122000   -4.9626418     1.634878   -3.3277637   0.92385311    1.0901912    5380.7933    22.853458 
 4123000   -4.9815374    1.6466078   -3.3349296   0.83598517    1.0980131    5380.7933    23.721797 
 4124000   -4.9423377    1.5885106   -3.3538271    1.0387929    1.0592719    5380.7933     24.57433 
 4125000   -4.9695925    1.6549701   -3.3146224   0.89589107    1.1035893    5380.7933    25.454035 
 4126000   -4.9564263    1.6598893    -3.296537    0.9567962    1.1068696    5380.7933    26.364253 
 4127000   -4.9462709    1.6604231   -3.2858478    1.0065285    1.1072255    5380.7933    27.251886 
 4128000   -4.9836516    1.6536874   -3.3299642   0.79350431     1.102734    5380.7933    28.560916 
 4129000   -4.9509094    1.6262547   -3.3246546    0.9609809    1.0844409    5380.7933    29.599907 
 4130000   -4.9538215    1.6361736   -3.3176479    0.9771206    1.0910552    5380.7933    30.577534 
 4131000   -4.9699431    1.6188957   -3.3510475   0.84331436    1.0795337    5380.7933    31.932472 
 4132000   -5.0092296    1.6442857   -3.3649438   0.68997539    1.0964646    5380.7933    33.263475 
 4133000   -4.9904047    1.6602759   -3.3301288   0.82573783    1.1071274    5380.7933    34.308727 
 4134000   -4.9530569    1.6380302   -3.3150266   0.96008364    1.0922932    5380.7933    35.607416 
 4135000   -4.9625119    1.6433945   -3.3191174   0.94570797    1.0958703    5380.7933      36.3918 
 4136000   -4.9603569    1.6207236   -3.3396333   0.88209205    1.0807526    5380.7933    37.570968 
 4137000   -4.9532718    1.6402126   -3.3130593   0.97492583    1.0937485    5380.7933    38.435613 
 4138000   -4.9750137    1.6660547    -3.308959   0.91050573    1.1109809    5380.7933    39.432515 
 4139000   -4.9670159    1.6710226   -3.2959933   0.92227292    1.1142937    5380.7933    40.464908 
 4140000   -4.9641024    1.6414826   -3.3226198   0.86410109    1.0945954    5380.7933    41.601304 
 4141000   -4.9474668    1.6432512   -3.3042157    1.0124703    1.0957747    5380.7933    42.111284 
 4142000   -4.9535483    1.6599939   -3.2935544   0.95508324    1.1069393    5380.7933    43.132134 
 4143000   -4.9502326    1.6489726     -3.30126   0.98074473    1.0995899    5380.7933    44.327932 
 4144000   -4.9733335     1.678342   -3.2949915   0.92212517    1.1191745    5380.7933    45.272826 
 4145000   -4.9363865    1.6257231   -3.3106634    1.0351527    1.0840864    5380.7933     46.64351 
 4146000   -4.9641236    1.6596196   -3.3045039   0.93679553    1.1066898    5380.7933    47.157333 
 4147000   -4.9671131    1.6821453   -3.2849677   0.97351181    1.1217107    5380.7933    48.152834 
 4148000   -4.9653368    1.6478299   -3.3175069   0.92058397     1.098828    5380.7933    49.397013 
 4149000   -4.9683718    1.6339885   -3.3343833    0.8425054    1.0895981    5380.7933    50.490629 
 4150000   -4.9459987    1.6443041   -3.3016945   0.98770555    1.0964769    5380.7933    51.685306 
 4151000   -4.9556477    1.6704304   -3.2852172   0.96375366    1.1138988    5380.7933    52.880364 
 4152000   -4.9503753    1.6801272   -3.2702481    1.0138451    1.1203649    5380.7933    53.884977 
 4153000   -4.9309781    1.6689485   -3.2620296    1.0515851    1.1129105    5380.7933    54.891676 
 4154000   -4.9676049    1.6812108   -3.2863941    0.8618623    1.1210875    5380.7933    55.783431 
 4155000   -4.9461659    1.6452138   -3.3009521   0.99637332    1.0970835    5380.7933    56.778237 
 4156000   -4.9472215    1.6541337   -3.2930879   0.99950981    1.1030315    5380.7933    57.991545 
 4157000   -4.9917015    1.6463694   -3.3453321   0.80971479     1.097854    5380.7933    59.626599 
 4158000   -4.9840864    1.6278644   -3.3562219   0.81765151    1.0855143    5380.7933    60.636034 
 4159000   -4.9796432    1.6387129   -3.3409303   0.82967851    1.0927485    5380.7933    61.267861 
 4160000   -4.9815414    1.6499566   -3.3315848   0.83887635    1.1002461    5380.7933    62.359323 
 4161000   -4.9617128    1.6360349   -3.3256779   0.85625467    1.0909627    5380.7933    62.921126 
 4162000   -4.9432432    1.6316943   -3.3115489    1.0127693    1.0880682    5380.7933    64.283814 
 4163000   -4.9536444    1.6364662   -3.3171782   0.95222905    1.0912503    5380.7933    64.949845 
 4164000   -4.9642123    1.6220622   -3.3421501   0.89326347    1.0816452    5380.7933     65.78178 
 4165000   -4.9473897     1.632931   -3.3144586      0.99183    1.0888929    5380.7933    66.990352 
 4166000   -4.9297366    1.6413904   -3.2883463    1.0411338    1.0945339    5380.7933    68.347225 
 4167000   -4.9466101    1.6512919   -3.2953182     1.016016    1.1011365    5380.7933    69.033991 
 4168000   -4.9405976    1.6402786    -3.300319    1.0040687    1.0937925    5380.7933     69.80798 
 4169000   -4.9744109    1.6612852   -3.3131257   0.90797073    1.1078004    5380.7933    70.951783 
 4170000   -4.9830512    1.6404298   -3.3426214   0.81754584    1.0938934    5380.7933     71.89522 
 4171000    -4.978861    1.6145003   -3.3643607   0.87626928    1.0766027    5380.7933    72.508032 
 4172000   -4.9746788    1.6378175   -3.3368613   0.83996532    1.0921514    5380.7933    73.488975 
 4173000   -4.9707575    1.6790338   -3.2917237   0.94424884    1.1196358    5380.7933    74.566461 
 4174000   -4.9499799      1.64236   -3.3076199    1.0035602    1.0951805    5380.7933    76.190946 
 4175000   -4.9436541    1.6317846   -3.3118696     1.030028    1.0881284    5380.7933    77.231482 
 4176000   -4.9579098    1.6374881   -3.3204217   0.95215288    1.0919317    5380.7933    77.872567 
 4177000   -4.9685069    1.6309219   -3.3375849     0.880889    1.0875532    5380.7933    78.890633 
 4178000   -4.9577486    1.6320913   -3.3256573   0.91270579    1.0883329    5380.7933    80.261441 
 4179000   -4.9652742    1.6313032    -3.333971   0.90072742    1.0878074    5380.7933    81.394698 
 4180000   -4.9540737    1.6462947    -3.307779   0.92366103    1.0978042    5380.7933     82.44222 
 4181000   -4.9477821    1.6742537   -3.2735284    1.0860801    1.1164482    5380.7933    83.476207 
 4182000   -4.9564217    1.6600635   -3.2963582   0.95157758    1.1069857    5380.7933    85.249267 
 4183000    -4.932364    1.6457641   -3.2865999    1.0503063    1.0974505    5380.7933    86.440194 
 4184000    -4.966071    1.5880118   -3.3780592   0.88589039    1.0589393    5380.7933    87.461119 
 4185000   -4.9826936    1.6371139   -3.3455797   0.81456213    1.0916822    5380.7933    88.274424 
 4186000   -4.9742561    1.6392085   -3.3350476   0.87697752    1.0930789    5380.7933     89.62304 
 4187000    -4.971959    1.6444059   -3.3275531   0.90138529    1.0965447    5380.7933    90.786048 
 4188000   -4.9814841    1.6560846   -3.3253995   0.89741279    1.1043325    5380.7933     92.32149 
 4189000   -4.9544514    1.6393656   -3.3150858   0.91501304    1.0931837    5380.7933     93.59008 
 4190000   -4.9608594     1.649145   -3.3117144   0.93837845    1.0997049    5380.7933    94.427224 
 4191000   -4.9399034    1.6812849   -3.2586185    1.0368558    1.1211369    5380.7933    96.718542 
 4192000   -4.9394635    1.6813629   -3.2581006    1.0078822    1.1211889    5380.7933    97.666406 
 4193000    -4.951648    1.6468824   -3.3047656    0.9583178    1.0981961    5380.7933    99.092179 
 4194000   -4.9746115    1.6659275    -3.308684   0.87686053     1.110896    5380.7933     100.4707 
 4195000    -4.958749    1.6255992   -3.3331498   0.92913963    1.0840038    5380.7933    101.52922 
 4196000   -4.9696041    1.6256795   -3.3439246   0.89720429    1.0840573    5380.7933    102.72537 
 4197000   -4.9885958    1.6270971   -3.3614987   0.83437751    1.0850026    5380.7933    103.61372 
 4198000   -4.9670107    1.6401457    -3.326865   0.92691824    1.0937039    5380.7933    104.62633 
 4199000   -4.9603685    1.6249273   -3.3354412   0.94992967    1.0835557    5380.7933    105.61552 
 4200000   -4.9836516    1.6344886    -3.349163   0.77715378    1.0899316    5380.7933     107.0156 
 4201000   -4.9446904    1.6358529   -3.3088376    1.0353396    1.0908413    5380.7933    107.62036 
 4202000   -4.9542462    1.6682499   -3.2859963   0.92283507    1.1124447    5380.7933    108.41037 
 4203000   -4.9610584    1.6953486   -3.2657098   0.96611945     1.130515    5380.7933    109.34189 
 4204000   -4.9785026    1.6656441   -3.3128586   0.86335798     1.110707    5380.7933    110.15555 
 4205000   -4.9633803    1.6472084    -3.316172   0.92071321    1.0984135    5380.7933    111.87077 
 4206000   -4.9574502    1.6432915   -3.3141587   0.95010251    1.0958016    5380.7933    113.37969 
 4207000   -4.9561654    1.6209708   -3.3351945   0.92581122    1.0809175    5380.7933    114.86597 
 4208000   -4.9753344    1.6232614    -3.352073   0.80505992    1.0824449    5380.7933    115.95602 
 4209000   -4.9766241    1.6644219   -3.3122023   0.91119902    1.1098921    5380.7933    116.52762 
 4210000   -4.9740249    1.6497346   -3.3242903    0.9085169    1.1000981    5380.7933    117.81007 
 4211000   -4.9582027     1.613002   -3.3452008   0.94353736    1.0756035    5380.7933    118.68543 
 4212000   -4.9523973    1.6464804   -3.3059169   0.96653773    1.0979281    5380.7933    119.94064 
 4213000   -4.9450451    1.6510661    -3.293979    1.0327192     1.100986    5380.7933     121.0162 
 4214000   -4.9517976    1.6752672   -3.2765304    0.9947296    1.1171241    5380.7933     122.2871 
 4215000   -4.9566399    1.6599357   -3.2967042   0.94428269    1.1069005    5380.7933    123.64462 
 4216000   -4.9949451    1.6308751   -3.3640699   0.77696464     1.087522    5380.7933     124.9706 
 4217000   -4.9806703    1.6275673    -3.353103   0.85399747    1.0853162    5380.7933    126.19612 
 4218000   -4.9499476    1.6140765   -3.3358711   0.96074235    1.0763201    5380.7933    127.09732 
 4219000   -4.9534384    1.6329118   -3.3205266   0.91379625    1.0888801    5380.7933    127.68362 
 4220000    -4.972206    1.6220993   -3.3501066   0.90752973      1.08167    5380.7933    127.82567 
 4221000   -4.9755021    1.6121775   -3.3633246   0.86879607    1.0750538    5380.7933     128.7853 
 4222000   -4.9780122    1.6738978   -3.3041144   0.89982937    1.1162109    5380.7933    130.28372 
 4223000   -4.9671025    1.6634062   -3.3036962   0.93331454    1.1092148    5380.7933    131.31562 
 4224000   -4.9406003    1.6597329   -3.2808674    0.9871993    1.1067653    5380.7933    132.13892 
 4225000   -4.9505114    1.6522363   -3.2982752   0.96394975    1.1017663    5380.7933    132.71009 
 4226000   -4.9632334    1.6570293   -3.3062041   0.89527224    1.1049625    5380.7933    134.06042 
 4227000   -4.9240627    1.6062779   -3.3177848    1.0379916    1.0711197    5380.7933    135.04986 
 4228000   -4.9779682    1.6257141   -3.3522541   0.86834867    1.0840804    5380.7933    136.11679 
 4229000   -4.9617404     1.632736   -3.3290044   0.93097007    1.0887629    5380.7933    136.49449 
 4230000    -4.967196    1.6585769   -3.3086191   0.87039664    1.1059944    5380.7933    137.59627 
 4231000   -4.9542445    1.6191911   -3.3350534   0.96547713    1.0797307    5380.7933    138.69027 
 4232000   -4.9700461    1.6333067   -3.3367394   0.87151398    1.0891434    5380.7933    138.93538 
 4233000    -4.952259     1.605308    -3.346951   0.92410917    1.0704729    5380.7933    140.19859 
 4234000   -4.9655455    1.6516636   -3.3138819   0.89592139    1.1013844    5380.7933    141.58613 
 4235000   -4.9734285    1.6644626   -3.3089659   0.85849148    1.1099192    5380.7933    142.48608 
 4236000   -4.9479345    1.6279211   -3.3200134   0.98381069    1.0855521    5380.7933    144.22584 
 4237000    -4.954035     1.647342   -3.3066931   0.96425443    1.0985026    5380.7933    145.92999 
 4238000   -4.9764682    1.6250212    -3.351447   0.87505422    1.0836184    5380.7933    146.59227 
 4239000   -4.9548295    1.6232478   -3.3315817   0.94054626    1.0824358    5380.7933    146.82623 
 4240000   -4.9594752    1.6355822    -3.323893   0.90843469    1.0906608    5380.7933    147.89823 
 4241000    -4.942317    1.6320435   -3.3102735    1.0192233    1.0883011    5380.7933    148.98415 
 4242000   -4.9469207    1.6347567    -3.312164   0.99676567    1.0901103    5380.7933    150.29589 
 4243000   -4.9583386    1.6597944   -3.2985442   0.95759894    1.1068063    5380.7933      151.083 
 4244000   -4.9623683    1.6719057   -3.2904625   0.91474509    1.1148826    5380.7933    151.85935 
 4245000    -4.959918     1.656997    -3.302921    0.9091802    1.1049409    5380.7933    152.63111 
 4246000   -4.9476055    1.6471173   -3.3004882    0.9723004    1.0983528    5380.7933    153.21486 
 4247000   -4.9548666    1.6615487   -3.2933179   0.94602074    1.1079761    5380.7933    153.80142 
 4248000   -4.9479327    1.6593713   -3.2885614   0.93392345    1.1065242    5380.7933    154.63448 
 4249000   -4.9436324    1.6708228   -3.2728095    1.0206497    1.1141604    5380.7933    155.93116 
 4250000    -4.931556    1.6345934   -3.2969626    1.0393051    1.0900014    5380.7933     157.0988 
 4251000    -4.978077    1.6785982   -3.2994788   0.93195341    1.1193453    5380.7933    158.02153 
 4252000     -4.92173    1.6396572   -3.2820728    1.0516168    1.0933781    5380.7933    158.57469 
 4253000   -4.9658998    1.6920298     -3.27387   0.88363802    1.1283019    5380.7933     159.1404 
 4254000    -4.984525     1.672116    -3.312409   0.83978091    1.1150228    5380.7933    159.78564 
 4255000    -4.960084    1.6540744   -3.3060095   0.90844476     1.102992    5380.7933    160.47096 
 4256000   -4.9804873    1.6563322   -3.3241551   0.81684663    1.1044976    5380.7933    161.98517 
 4257000   -4.9602589    1.6243758   -3.3358831   0.95171204     1.083188    5380.7933    162.29531 
 4258000   -4.9653654    1.6101242   -3.3552412   0.91365123    1.0736846    5380.7933    162.49258 
 4259000   -4.9792708    1.6329589   -3.3463119   0.83722066    1.0889115    5380.7933    162.51927 
 4260000   -4.9568145    1.6454192   -3.3113953   0.93655566    1.0972204    5380.7933     163.5832 
 4261000   -4.9663369    1.6685324   -3.2978044   0.94436587    1.1126331    5380.7933    164.58499 
 4262000   -4.9853746    1.6547267   -3.3306479   0.81173555     1.103427    5380.7933    165.40703 
 4263000    -4.958158    1.6384074   -3.3197506   0.95303618    1.0925447    5380.7933    166.68602 
 4264000    -4.975982    1.6616874   -3.3142946   0.86907198    1.1080686    5380.7933    167.79716 
 4265000   -4.9525328    1.6393849   -3.3131479   0.94413262    1.0931966    5380.7933    169.08746 
 4266000   -4.9584031     1.648862   -3.3095411   0.92937609    1.0995162    5380.7933    170.03326 
 4267000   -4.9656878    1.6478581   -3.3178297   0.93897705    1.0988468    5380.7933    170.11288 
 4268000   -4.9633039    1.6325098   -3.3307941   0.96138035     1.088612    5380.7933    171.00164 
 4269000   -4.9471187    1.6528085   -3.2943102   0.93321965    1.1021479    5380.7933    171.43952 
 4270000   -4.9559462    1.6492426   -3.3067036   0.95840468      1.09977    5380.7933    171.89635 
 4271000    -4.955957    1.6564847   -3.2994723   0.97877053    1.1045993    5380.7933     172.5932 
 4272000   -4.9665508    1.6493871   -3.3171637    0.8716933    1.0998664    5380.7933    173.35719 
 4273000   -4.9523893    1.6369613   -3.3154281   0.95247841    1.0915804    5380.7933    175.09149 
 4274000    -4.949677    1.6197543   -3.3299227   0.98825801    1.0801062    5380.7933    176.72759 
 4275000     -4.95687    1.6128075   -3.3440626   0.95858114    1.0754738    5380.7933    177.25565 
 4276000   -4.9735436     1.651194   -3.3223496   0.91451279    1.1010713    5380.7933     178.7832 
 4277000   -4.9647674     1.631962   -3.3328054   0.89299897    1.0882467    5380.7933    180.02572 
 4278000   -4.9491515    1.6356599   -3.3134916   0.95465609    1.0907126    5380.7933    182.16608 
 4279000   -4.9839822    1.6412793   -3.3427029   0.86168415    1.0944598    5380.7933    183.32884 
 4280000   -4.9449314    1.6278819   -3.3170495   0.98747311     1.085526    5380.7933    183.35531 
 4281000   -4.9511613     1.637966   -3.3131953   0.97927169    1.0922504    5380.7933    184.53031 
 4282000   -4.9396076    1.6567651   -3.2828426    1.0372768    1.1047862    5380.7933    185.23016 
 4283000   -4.9599236    1.6549019   -3.3050217   0.92733977    1.1035438    5380.7933    185.65531 
 4284000   -4.9618378    1.6630762   -3.2987616   0.91484584    1.1089947    5380.7933    186.95689 
 4285000   -4.9609254    1.6482307   -3.3126947   0.90042392    1.0990953    5380.7933    186.99284 
 4286000     -4.94456    1.6505868   -3.2939732      1.02949    1.1006664    5380.7933    188.04989 
 4287000   -4.9658026    1.6718047   -3.2939979   0.96215901    1.1148152    5380.7933    189.52499 
 4288000   -4.9445389    1.6751868   -3.2693521    1.0172743    1.1170704    5380.7933    190.53294 
 4289000   -4.9439956    1.6584459   -3.2855497    1.0291862    1.1059071    5380.7933    191.54208 
 4290000   -4.9717159    1.6380099    -3.333706   0.87757519    1.0922797    5380.7933    192.82506 
 4291000   -4.9549838    1.6146687   -3.3403151    0.9020908     1.076715    5380.7933     194.4248 
 4292000   -4.9568191    1.5957551    -3.361064   0.90505529    1.0641028    5380.7933    196.07638 
 4293000   -4.9635223    1.6248309   -3.3386914   0.89883777    1.0834915    5380.7933    197.27449 
 4294000   -4.9715519    1.6714256   -3.3001262    0.9068506    1.1145624    5380.7933    198.94963 
 4295000    -4.935154    1.6419343   -3.2932197    1.0404397    1.0948966    5380.7933    200.29014 
 4296000    -4.953666    1.6612808   -3.2923852   0.95370873    1.1077975    5380.7933    201.65979 
 4297000   -4.9431202    1.6774839   -3.2656363    1.0483278    1.1186022    5380.7933     202.7082 
 4298000   -4.9614427    1.6818352   -3.2796075   0.94583112    1.1215039    5380.7933    203.74775 
 4299000   -4.9462713    1.6612393    -3.285032   0.98345505    1.1077698    5380.7933     204.5799 
 4300000   -4.9772546    1.6485425    -3.328712   0.84501113    1.0993032    5380.7933    206.24444 
 4301000   -4.9578413    1.6044645   -3.3533767   0.91673763    1.0699105    5380.7933    207.79039 
 4302000   -4.9663259    1.6310361   -3.3352898   0.89289099    1.0876293    5380.7933    208.77244 
 4303000   -4.9689143    1.6391189   -3.3297954   0.88781919    1.0930192    5380.7933     209.7357 
 4304000   -4.9443156    1.6363843   -3.3079313   0.96553717    1.0911957    5380.7933    210.22456 
 4305000   -4.9757616    1.6338012   -3.3419604   0.90334443    1.0894732    5380.7933    210.41529 
 4306000   -4.9765662    1.6347934   -3.3417728   0.88704247    1.0901348    5380.7933    210.50715 
 4307000   -4.9844321    1.6286627   -3.3557694   0.81975976    1.0860466    5380.7933    211.70261 
 4308000   -4.9521614     1.652914   -3.2992473   0.96281361    1.1022183    5380.7933     212.4125 
 4309000   -4.9452103    1.6549769   -3.2902333    1.0173183    1.1035939    5380.7933    213.51198 
 4310000   -4.9579606     1.670512   -3.2874485   0.96807782    1.1139532    5380.7933    214.64293 
 4311000   -4.9690642    1.6568163   -3.3122479    0.9230756    1.1048204    5380.7933    215.88836 
 4312000   -4.9516913    1.6449245   -3.3067668   0.96522383    1.0968906    5380.7933    217.02379 
 4313000   -4.9680975    1.6536475     -3.31445   0.94048366    1.1027074    5380.7933    218.81718 
 4314000   -4.9684838    1.6438668    -3.324617   0.94586285    1.0961852    5380.7933    219.66198 
 4315000   -4.9659051    1.6352962    -3.330609    0.8786046    1.0904701    5380.7933    220.96728 
 4316000   -4.9513221    1.6352484   -3.3160737   0.96136863    1.0904382    5380.7933    220.98447 
 4317000   -4.9595063    1.6155472   -3.3439591   0.94789231    1.0773008    5380.7933    221.42189 
 4318000   -4.9442713    1.6313659   -3.3129054   0.98545357    1.0878492    5380.7933    222.12267 
 4319000   -4.9552165    1.6583313   -3.2968852   0.95356198    1.1058306    5380.7933    222.96543 
 4320000   -4.9659186    1.6834806    -3.282438   0.96402051    1.1226011    5380.7933    223.71766 
 4321000   -4.9565999    1.6623627   -3.2942372    1.0059242    1.1085189    5380.7933     224.1774 
 4322000   -4.9757553    1.6612307   -3.3145246   0.87565179    1.1077641    5380.7933    224.77303 
 4323000   -4.9694683    1.6355298   -3.3339385   0.88131598    1.0906259    5380.7933    226.24752 
 4324000   -4.9660493    1.6359651   -3.3300842   0.88199452    1.0909161    5380.7933    227.07899 
 4325000   -4.9689461    1.6055399   -3.3634062   0.91242917    1.0706276    5380.7933     228.6729 
 4326000    -4.952491    1.6200589   -3.3324321   0.92005959    1.0803093    5380.7933    229.35836 
 4327000    -4.989518    1.6613315   -3.3281864   0.85403879    1.1078313    5380.7933    231.21226 
 4328000   -4.9551927    1.6350096    -3.320183   0.93263339     1.090279    5380.7933    231.58678 
 4329000   -4.9226202    1.6260441   -3.2965761    1.0872688    1.0843005    5380.7933    231.96631 
 4330000   -4.9449688    1.6729749   -3.2719939    1.0391882    1.1155955    5380.7933    233.72744 
 4331000   -4.9604423    1.6593737   -3.3010685   0.93782127    1.1065258    5380.7933    234.47701 
 4332000   -4.9547957    1.6966844   -3.2581113   0.97920142    1.1314058    5380.7933     235.7891 
 4333000   -4.9579765    1.6907211   -3.2672554   0.99914907    1.1274293    5380.7933    236.75226 
 4334000     -4.94527     1.665916    -3.279354   0.96264664    1.1108884    5380.7933    237.93366 
 4335000    -4.935939    1.6344056   -3.3015333    1.0541531    1.0898762    5380.7933    238.82645 
 4336000   -4.9637808    1.6380994   -3.3256814   0.91551742    1.0923394    5380.7933     240.3267 
 4337000   -4.9441643    1.6225188   -3.3216455   0.95294803    1.0819497    5380.7933    241.52014 
 4338000   -4.9889753     1.650867   -3.3381083   0.84400612    1.1008532    5380.7933    242.30901 
 4339000   -4.9475549    1.6395453   -3.3080096    1.0110161    1.0933035    5380.7933    243.69134 
 4340000    -4.970766    1.6430678   -3.3276982   0.85424742    1.0956525    5380.7933    245.24963 
 4341000   -4.9718187    1.6420247    -3.329794    0.9312567    1.0949569    5380.7933    245.99438 
 4342000   -4.9682176    1.6166627   -3.3515549    0.9373803    1.0780447    5380.7933    247.97778 
 4343000   -4.9639371    1.6289614   -3.3349757   0.89435695    1.0862458    5380.7933    249.00275 
 4344000   -4.9563943    1.6512072   -3.3051871   0.96244716    1.1010801    5380.7933    249.40682 
 4345000    -4.940295    1.6405904   -3.2997046    1.0561433    1.0940004    5380.7933    249.59764 
 4346000    -4.951294    1.6588587   -3.2924353   0.97596627    1.1061824    5380.7933    249.86446 
 4347000   -4.9357446    1.6685212   -3.2672233    1.0540495    1.1126256    5380.7933    250.77576 
 4348000   -4.9523204    1.7112067   -3.2411136   0.98527177    1.1410898    5380.7933     251.7965 
 4349000   -4.9590418    1.6642617     -3.29478   0.93033209    1.1097853    5380.7933    252.85569 
 4350000   -4.9644186    1.6688138   -3.2956048   0.98115603    1.1128208    5380.7933    254.62057 
 4351000   -4.9393152    1.6655268   -3.2737884    1.0050062    1.1106288    5380.7933    255.54282 
 4352000     -4.96699    1.6609385   -3.3060515   0.87751381    1.1075692    5380.7933    257.34671 
 4353000   -4.9550927    1.6528542   -3.3022385   0.93383482    1.1021784    5380.7933     259.4596 
 4354000   -4.9531393    1.6776368   -3.2755025    1.0221202    1.1187042    5380.7933    259.66623 
 4355000   -4.9574793    1.6874293     -3.27005   0.96877486    1.1252342    5380.7933    260.89634 
 4356000   -4.9763689    1.6594649    -3.316904   0.83954475    1.1065866    5380.7933    262.82421 
 4357000   -4.9600091    1.6431843   -3.3168249   0.92638604    1.0957301    5380.7933    263.65954 
 4358000   -4.9607555    1.6376078   -3.3231477   0.92431097    1.0920116    5380.7933    264.63329 
 4359000   -4.9614093    1.6257271   -3.3356822   0.92859469    1.0840891    5380.7933    264.71577 
 4360000   -4.9705851    1.6273073   -3.3432778   0.83237504    1.0851428    5380.7933    266.29926 
 4361000   -4.9663774    1.6308431   -3.3355343   0.89525715    1.0875006    5380.7933    267.06307 
 4362000   -4.9457507    1.6113384   -3.3344123   0.95603216    1.0744942    5380.7933     269.7339 
 4363000   -4.9934483    1.6572463    -3.336202   0.79917855    1.1051071    5380.7933    271.05251 
 4364000   -4.9448831    1.6319726   -3.3129105    1.0032915    1.0882538    5380.7933     272.0102 
 4365000   -4.9653121    1.6801545   -3.2851576   0.97784074    1.1203831    5380.7933    273.73878 
 4366000   -4.9624869    1.6584485   -3.3040383   0.97032515    1.1059088    5380.7933    274.23201 
 4367000   -4.9551954     1.679897   -3.2752984   0.96148943    1.1202114    5380.7933    275.37849 
 4368000   -4.9567992    1.6539719   -3.3028272   0.95671293    1.1029237    5380.7933    276.35222 
 4369000   -4.9647753    1.6619489   -3.3028265   0.96017809     1.108243    5380.7933    277.30299 
 4370000   -4.9616332    1.6515676   -3.3100656   0.96527134    1.1013204    5380.7933    277.89583 
 4371000   -4.9894823    1.6311461   -3.3583362   0.79284562    1.0877027    5380.7933    279.41025 
 4372000   -4.9723499    1.6167982   -3.3555517   0.88476333     1.078135    5380.7933    281.19345 
 4373000   -4.9756086    1.6433362   -3.3322724   0.87854199    1.0958314    5380.7933    282.66418 
 4374000   -4.9656114    1.6357665   -3.3298449   0.89663904    1.0907837    5380.7933     283.4072 
 4375000   -4.9654232    1.6560208   -3.3094025   0.95668894    1.1042899    5380.7933    285.40743 
 4376000   -4.9547355    1.6543639   -3.3003716   0.99260909    1.1031851    5380.7933     285.6711 
 4377000   -4.9184923    1.6722653    -3.246227    1.1669153    1.1151223    5380.7933     286.3556 
 4378000    -4.949793    1.6840984   -3.2656947    1.0079512     1.123013    5380.7933    288.12981 
 4379000   -4.9465762    1.6362075   -3.3103687   0.95840474    1.0910778    5380.7933    288.31537 
 4380000   -4.9676073    1.6474093    -3.320198   0.96814145    1.0985475    5380.7933    289.32433 
 4381000   -4.9745853    1.6607265   -3.3138587   0.87388584    1.1074279    5380.7933    290.90745 
 4382000   -4.9549645    1.6339939   -3.3209706   0.92250409    1.0896017    5380.7933    291.92783 
 4383000   -4.9695531    1.6229646   -3.3465885   0.81369699    1.0822469    5380.7933    292.14105 
 4384000   -4.9775323    1.6471638   -3.3303685   0.84094113    1.0983838    5380.7933    293.31795 
 4385000    -4.955623    1.6234041   -3.3322189   0.96897484      1.08254    5380.7933      294.912 
 4386000   -4.9644366    1.6210545   -3.3433821   0.90749798    1.0809733    5380.7933    296.04405 
 4387000    -4.986156    1.6255151   -3.3606409   0.83874735    1.0839477    5380.7933    296.72142 
 4388000   -4.9790358    1.6321346   -3.3469012    0.7848175    1.0883618    5380.7933    297.41908 
 4389000   -4.9647392    1.6545088   -3.3102304   0.93529783    1.1032817    5380.7933     298.5099 
 4390000   -4.9638378    1.6592387   -3.3045991   0.94026452    1.1064357    5380.7933    299.32797 
 4391000   -4.9591874    1.6834982   -3.2756892   0.96792758    1.1226128    5380.7933    300.38247 
 4392000   -4.9428989     1.645715   -3.2971839    1.0209097    1.0974177    5380.7933    301.90867 
 4393000   -4.9606419    1.6601788   -3.3004631   0.91400659    1.1070626    5380.7933     302.1326 
 4394000   -4.9601684    1.6473111   -3.3128574   0.91184533     1.098482    5380.7933    303.07093 
 4395000   -4.9544254    1.6565732   -3.2978521   0.96473188    1.1046583    5380.7933    303.33461 
 4396000   -4.9702996    1.6722415    -3.298058   0.89504274    1.1151065    5380.7933     304.4925 
 4397000   -4.9569896     1.617658   -3.3393316   0.93178186    1.0787083    5380.7933    305.13754 
 4398000   -4.9704688     1.636314   -3.3341548   0.89370723    1.0911488    5380.7933    306.24421 
 4399000   -4.9587134    1.6205327   -3.3381807   0.93577136    1.0806253    5380.7933     307.0344 
 4400000   -4.9716032    1.6597413   -3.3118619   0.91435842    1.1067709    5380.7933    308.68396 
 4401000   -4.9306253    1.6460127   -3.2846125    1.0719435    1.0976162    5380.7933    309.56769 
 4402000   -4.9486226    1.6480625   -3.3005601   0.99105583    1.0989831    5380.7933    310.82803 
 4403000   -4.9535815    1.6272886   -3.3262929   0.95539877    1.0851304    5380.7933    310.87534 
 4404000   -4.9697641    1.6161116   -3.3536525   0.84665421    1.0776772    5380.7933    312.05524 
 4405000   -4.9799715    1.6219301   -3.3580414   0.83722768    1.0815571    5380.7933    313.16704 
 4406000   -4.9684478    1.6237978     -3.34465   0.92982562    1.0828026    5380.7933    313.54557 
 4407000   -4.9657748    1.6398907   -3.3258841   0.88913101    1.0935339    5380.7933    315.73484 
 4408000    -4.966806    1.6408082   -3.3259978   0.92569183    1.0941457    5380.7933    317.24965 
 4409000   -4.9573468    1.6381943   -3.3191525   0.97428437    1.0924026    5380.7933    318.46088 
 4410000   -4.9897993    1.6294165   -3.3603829   0.81978775    1.0865493    5380.7933    319.56403 
 4411000   -4.9647805    1.6544168   -3.3103637   0.94034517    1.1032204    5380.7933    320.32569 
 4412000   -4.9666435    1.6596923   -3.3069513   0.94541094    1.1067382    5380.7933    321.19277 
 4413000   -4.9793606    1.6844448   -3.2949158   0.88382186     1.123244    5380.7933    321.74655 
 4414000   -4.9392102    1.6437667   -3.2954435    1.0271644    1.0961185    5380.7933    323.47542 
 4415000   -4.9807561    1.6861362   -3.2946199   0.83809413    1.1243719    5380.7933    324.26391 
 4416000   -4.9524354    1.6711122   -3.2813232    1.0103728    1.1143534    5380.7933    325.26337 
 4417000   -4.9609441    1.6723364   -3.2886077   0.90622067    1.1151697    5380.7933    326.34273 
 4418000   -4.9422581    1.6751318   -3.2671263    1.0420315    1.1170338    5380.7933    327.61758 
 4419000   -4.9610091    1.6706528   -3.2903563   0.91548699     1.114047    5380.7933    328.55233 
 4420000   -4.9637249    1.6593477   -3.3043772   0.94435125    1.1065084    5380.7933    330.70873 
 4421000   -4.9713907    1.6432707   -3.3281199   0.95629203    1.0957878    5380.7933    331.09996 
 4422000   -4.9486377    1.6316927    -3.316945   0.95368128    1.0880671    5380.7933    331.70805 
 4423000   -4.9421943    1.6363477   -3.3058466    1.0289301    1.0911712    5380.7933    332.78306 
 4424000   -4.9485804    1.6693092   -3.2792712   0.98295901    1.1131511    5380.7933    333.28549 
 4425000   -4.9250549    1.6772417   -3.2478132    1.1138043    1.1184407    5380.7933    334.37712 
 4426000   -4.9481713    1.6659799   -3.2821914    1.0270965     1.110931    5380.7933    335.67251 
 4427000   -4.9345105    1.6430744   -3.2914361    1.0067477    1.0956569    5380.7933     336.8695 
 4428000   -4.9347879    1.6245066   -3.3102814   0.99449406    1.0832752    5380.7933    336.75096 
 4429000    -4.950567    1.6267099   -3.3238571   0.99959498    1.0847445    5380.7933    338.60969 
 4430000   -4.9809537    1.6333122   -3.3476415   0.78994078    1.0891471    5380.7933    339.56118 
 4431000   -4.9774252    1.6374424   -3.3399827   0.85933384    1.0919013    5380.7933    340.79837 
 4432000   -4.9545805    1.6498057   -3.3047748   0.99136539    1.1001455    5380.7933    342.58687 
 4433000   -4.9552287    1.6425754   -3.3126533   0.91024612    1.0953241    5380.7933    342.92132 
 4434000    -4.943884    1.6361546   -3.3077293    1.0085647    1.0910425    5380.7933    343.48457 
 4435000   -4.9513337    1.6536284   -3.2977053   0.95087244    1.1026946    5380.7933    342.99732 
 4436000   -4.9382201    1.6777134   -3.2605067    1.0857255    1.1187553    5380.7933    344.03013 
 4437000   -4.9610181    1.6788761    -3.282142   0.94006019    1.1195306    5380.7933    345.82721 
 4438000   -4.9589817     1.656278   -3.3027037   0.91261532    1.1044614    5380.7933    347.19826 
 4439000   -4.9721901    1.6368538   -3.3353363   0.89476226    1.0915087    5380.7933       348.39 
 4440000   -4.9755327    1.6159937    -3.359539   0.86129013    1.0775985    5380.7933    348.99074 
 4441000   -4.9923643    1.6519601   -3.3404043   0.80890732    1.1015821    5380.7933    349.96516 
 4442000    -4.963272    1.6421029   -3.3211691   0.89791699     1.095009    5380.7933    349.75059 
 4443000   -4.9628003    1.6365377   -3.3262626   0.91866511     1.091298    5380.7933    351.90016 
 4444000    -4.938227    1.6003359   -3.3378912   0.99783315    1.0671574    5380.7933    353.48963 
 4445000   -4.9670053    1.6547078   -3.3122975   0.88134411    1.1034144    5380.7933    353.41291 
 4446000    -4.938092    1.6516642   -3.2864278    1.0015946    1.1013848    5380.7933    353.39652 
 4447000   -4.9585502    1.6549021   -3.3036481   0.94645444     1.103544    5380.7933    354.80228 
 4448000   -4.9593123    1.6574825   -3.3018298   0.98007201    1.1052647    5380.7933    355.03814 
 4449000   -4.9746844    1.6446716   -3.3300129   0.87655599    1.0967219    5380.7933    356.56615 
 4450000   -4.9601206     1.639684   -3.3204366   0.95522452     1.093396    5380.7933    356.26201 
 4451000   -4.9748535    1.6556401   -3.3192134   0.87873447    1.1040361    5380.7933    357.48028 
 4452000    -4.986151    1.6578442   -3.3283069   0.84441163    1.1055058    5380.7933    359.55148 
 4453000   -4.9735014    1.6219947   -3.3515066   0.88050994    1.0816002    5380.7933    360.37427 
 4454000    -4.974489    1.6455932   -3.3288958   0.85526254    1.0973365    5380.7933    361.56469 
 4455000   -4.9734884    1.6352649   -3.3382235   0.82866655    1.0904492    5380.7933    362.94876 
 4456000   -4.9559526      1.64603   -3.3099226   0.90254991    1.0976278    5380.7933    363.65216 
 4457000   -4.9497359    1.6646079    -3.285128   0.95844871    1.1100161    5380.7933    364.20539 
 4458000    -4.969709    1.6982705   -3.2714385   0.90330795    1.1324635    5380.7933    365.32991 
 4459000   -4.9516097    1.6774556   -3.2741541    0.9610625    1.1185833    5380.7933    366.39952 
 4460000   -4.9348666    1.6319401   -3.3029265    1.0124582    1.0882321    5380.7933    367.94169 
 4461000   -4.9678459    1.6652863   -3.3025597   0.88235262    1.1104685    5380.7933    368.82147 
 4462000   -4.9637243    1.6655368   -3.2981876    0.9490318    1.1106355    5380.7933    369.98238 
 4463000   -4.9547862     1.647765   -3.3070212   0.98460329    1.0987847    5380.7933    371.33449 
 4464000   -4.9659382    1.6508187   -3.3151195   0.95453377     1.100821    5380.7933    372.00751 
 4465000   -4.9809461    1.6298639   -3.3510821   0.82955328    1.0868477    5380.7933    372.50958 
 4466000   -4.9592314    1.6279548   -3.3312766   0.94450075    1.0855746    5380.7933    373.27923 
 4467000    -4.965928    1.6499129   -3.3160151   0.90218716     1.100217    5380.7933    374.06591 
 4468000   -4.9563606    1.6218591   -3.3345015   0.91216843    1.0815098    5380.7933    374.64092 
 4469000   -4.9690793    1.6435636   -3.3255157   0.90547338     1.095983    5380.7933    376.99695 
 4470000     -4.96173     1.640511    -3.321219   0.90946912    1.0939475    5380.7933    378.48835 
 4471000    -4.963991    1.6452655   -3.3187255   0.89032294    1.0971179    5380.7933    380.43581 
 4472000   -4.9429401     1.681106    -3.261834    0.9859164    1.1210176    5380.7933    381.64812 
 4473000   -4.9499887    1.6797148   -3.2702739    1.0117307    1.1200899    5380.7933    382.70885 
 4474000   -4.9558531    1.6684784   -3.2873747   0.99500361    1.1125971    5380.7933    383.62751 
 4475000   -4.9755434    1.6355505   -3.3399929   0.85381608    1.0906397    5380.7933    384.28971 
 4476000   -4.9812513    1.6190996   -3.3621518   0.85276478    1.0796696    5380.7933    384.23828 
 4477000   -4.9557537    1.6441926   -3.3115611   0.94641719    1.0964025    5380.7933    386.31889 
 4478000    -4.978621     1.634978    -3.343643   0.83474322    1.0902579    5380.7933      387.653 
 4479000   -4.9772582    1.6587071   -3.3185511     0.882264    1.1060813    5380.7933    389.02603 
 4480000   -4.9459861    1.6394404   -3.3065457   0.99834015    1.0932336    5380.7933    390.85839 
 4481000   -4.9558711    1.6598081    -3.296063   0.99554352    1.1068154    5380.7933    390.91956 
 4482000    -4.981264    1.6957736   -3.2854904   0.87117601    1.1307985    5380.7933    391.46484 
 4483000   -4.9438683    1.6514991   -3.2923692   0.99796263    1.1012747    5380.7933    393.55705 
 4484000   -4.9513841    1.6452365   -3.3061476   0.98299137    1.0970986    5380.7933    394.71701 
 4485000   -4.9753037    1.6595828   -3.3157209   0.85993933    1.1066652    5380.7933    395.37983 
 4486000   -4.9387185    1.6323364   -3.3063821    1.0642707    1.0884964    5380.7933    397.17146 
 4487000   -4.9381916    1.6646131   -3.2735785    1.0283332    1.1100196    5380.7933    397.60076 
 4488000   -4.9575558    1.6715377   -3.2860181   0.96183058    1.1146371    5380.7933    399.31123 
 4489000   -4.9393574    1.6561121   -3.2832453    1.0207267    1.1043508    5380.7933    401.08648 
 4490000   -4.9621561    1.6583219   -3.3038341   0.95305292    1.1058244    5380.7933    402.86188 
 4491000   -4.9527823    1.6472283    -3.305554   0.94011789    1.0984268    5380.7933    403.86691 
 4492000   -4.9544568     1.657891   -3.2965658    0.9634298     1.105537    5380.7933     405.0006 
 4493000   -4.9646893    1.6546173    -3.310072   0.94897772     1.103354    5380.7933     406.6697 
 4494000   -4.9856552    1.6535532    -3.332102   0.80561977    1.1026444    5380.7933    407.04446 
 4495000   -4.9766429    1.6453154   -3.3313275   0.85725962    1.0971512    5380.7933    407.78699 
 4496000   -4.9841512    1.6120905   -3.3720607   0.81069164    1.0749958    5380.7933    409.15883 
 4497000   -4.9682253    1.6465387   -3.3216866   0.89862696    1.0979669    5380.7933    410.23564 
 4498000   -4.9636425    1.6539528   -3.3096897   0.91711754    1.1029109    5380.7933    411.21812 
 4499000   -4.9914602    1.6791139   -3.3123463   0.80861968    1.1196892    5380.7933    411.95757 
 4500000   -4.9572704    1.6564095   -3.3008609    0.9628493    1.1045491    5380.7933     413.6465 
Loop time of 1600.92 on 2 procs for 400000 steps with 4000 atoms

Performance: 107937.637 tau/day, 249.856 timesteps/s
98.8% CPU use with 2 MPI tasks x no OpenMP threads

MPI task timing breakdown:
Section |  min time  |  avg time  |  max time  |%varavg| %total
---------------------------------------------------------------
Pair    | 1298.4     | 1321.8     | 1345.2     |  64.4 | 82.56
Neigh   | 139.75     | 140.84     | 141.92     |   9.1 |  8.80
Comm    | 84.164     | 108.63     | 133.09     | 234.7 |  6.79
Output  | 0.95421    | 0.95653    | 0.95886    |   0.2 |  0.06
Modify  | 24.011     | 24.052     | 24.092     |   0.8 |  1.50
Other   |            | 4.662      |            |       |  0.29

Nlocal:    2000 ave 2006 max 1994 min
Histogram: 1 0 0 0 0 0 0 0 0 1
Nghost:    5668 ave 5669 max 5667 min
Histogram: 1 0 0 0 0 0 0 0 0 1
Neighs:    169632 ave 173066 max 166197 min
Histogram: 1 0 0 0 0 0 0 0 0 1

Total # of neighbors = 339263
Ave neighs/atom = 84.8157
Neighbor list builds = 20000
Dangerous builds not checked
unfix     intnvt
unfix     rdfnvt
uncompute rdfnvt
uncompute msd
undump    idnvt

next      a
jump      in.melt temploop #it will again transfer the call to label temploop line
variable    a loop 11   #loop parameter defined
variable    temp equal 0.3+($a-1)*0.1   #temp value will increase at rate of 0.1 from 0.3 till 1.3
variable    temp equal 0.3+(10-1)*0.1   

log       log.lammps.npt.${temp}
log       log.lammps.npt.1.2
