thermo		${nthermo}
thermo		1000
thermo_style custom step pe ke etotal press temp vol density
dump		id all atom 1000 out.dump.npt.${temp}.lammpstrj
dump		id all atom 1000 out.dump.npt.0.3.lammpstrj
restart 100000 restartnvt1.data restartnvt2.data

fix 		intnpt all npt temp ${temp} ${temp} ${tdamp} iso ${pext} ${pext} ${pdamp}
fix 		intnpt all npt temp 0.3 ${temp} ${tdamp} iso ${pext} ${pext} ${pdamp}
fix 		intnpt all npt temp 0.3 0.3 ${tdamp} iso ${pext} ${pext} ${pdamp}
fix 		intnpt all npt temp 0.3 0.3 1 iso ${pext} ${pext} ${pdamp}
fix 		intnpt all npt temp 0.3 0.3 1 iso 1 ${pext} ${pdamp}
fix 		intnpt all npt temp 0.3 0.3 1 iso 1 1 ${pdamp}
fix 		intnpt all npt temp 0.3 0.3 1 iso 1 1 10
run		  100000
Per MPI rank memory allocation (min/avg/max) = 4.747 | 4.747 | 4.747 Mbytes
Step PotEng KinEng TotEng Press Temp Volume Density 
       0   -7.0441381     4.498875   -2.5452631   -4.1596017            3    4738.2137       0.8442 
    1000   -6.6109053   0.70418394   -5.9067214    0.3689632   0.46957336    4355.8488   0.91830552 
    2000   -7.1766019   0.44030747   -6.7362944   0.93646358   0.29361172    4055.2529   0.98637498 
    3000   -7.1743344   0.46841479   -6.7059196   0.96414348   0.31235461    4055.6907   0.98626851 
    4000   -7.2104249   0.45987157   -6.7505533    1.0042722   0.30665771    4038.3291   0.99050867 
    5000   -7.2299578   0.43287931   -6.7970785    1.0449282   0.28865837    4027.1134   0.99326728 
    6000   -7.2309234   0.44209822   -6.7888252    1.0047876   0.29480585    4029.5337   0.99267069 
    7000   -7.2281003   0.45949839   -6.7686019   0.98228191   0.30640886    4032.8045   0.99186559 
    8000   -7.2431576   0.45498532   -6.7881722   0.99608351    0.3033994    4025.6984   0.99361642 
    9000   -7.2662753   0.44899353   -6.8172818   0.97105551   0.29940387    4018.7871   0.99532519 
   10000   -7.2526545   0.44611612   -6.8065384   0.99782362   0.29748512    4021.4824   0.99465808 
   11000   -7.2425191   0.45397118   -6.7885479   0.99025459   0.30272313    4025.9597   0.99355192 
   12000   -7.2573669   0.44977393    -6.807593   0.95622786   0.29992427    4022.5059   0.99440501 
   13000   -7.2634666   0.44244379   -6.8210228    1.0100831   0.29503629     4017.705   0.99559327 
   14000   -7.2570694   0.44822439    -6.808845    0.9707124   0.29889098    4022.0703   0.99451269 
   15000   -7.2569791   0.45480742   -6.8021716   0.97342983   0.30328077    4022.6721   0.99436392 
   16000   -7.2630056    0.4473325   -6.8156731    1.0089871   0.29829624    4017.9196   0.99554007 
   17000   -7.2708605   0.44342119   -6.8274393    1.0064358   0.29568805    4014.3364    0.9964287 
   18000   -7.2759375   0.44623645   -6.8297011    1.0182004   0.29756536    4011.5202   0.99712821 
   19000   -7.2767201   0.45923678   -6.8174833    1.0081305   0.30623441    4011.9272   0.99702706 
   20000   -7.2773173   0.45572551   -6.8215918    1.1234747   0.30389298    4004.9643   0.99876047 
   21000   -7.2757973   0.44602227    -6.829775    1.2309493   0.29742253    3997.3543    1.0006619 
   22000   -7.2751753   0.45178023   -6.8233951     1.192885   0.30126213     4000.403   0.99989926 
   23000   -7.2772996   0.45425298   -6.8230466    1.1029795   0.30291105    4005.5034   0.99862604 
   24000   -7.2893498   0.45394358   -6.8354062    1.0256542   0.30270473    4006.7768   0.99830867 
   25000    -7.292973   0.45329549   -6.8396775   0.95299272   0.30227256    4009.5917    0.9976078 
   26000    -7.276146   0.44692565   -6.8292203   0.99181604   0.29802494    4013.4381   0.99665172 
   27000   -7.2759872   0.44856732   -6.8274198     1.004901   0.29911966    4012.7203      0.99683 
   28000    -7.282606   0.43997106   -6.8426349    1.0408998   0.29338738    4007.4536   0.99814006 
   29000   -7.2807539   0.43934063   -6.8414132    1.0744983     0.292967    4006.0751   0.99848352 
   30000   -7.2712253   0.43890798   -6.8323173    1.0664469   0.29267849    4008.4747   0.99788582 
   31000   -7.2817064   0.45002737    -6.831679     1.032035   0.30009327    4008.5294    0.9978722 
   32000   -7.2798479   0.44208482   -6.8377631    1.0308503   0.29479692    4009.0543   0.99774154 
   33000   -7.2857169   0.45249066   -6.8332262   0.96864608   0.30173588    4011.3487   0.99717086 
   34000   -7.2854149   0.44470707   -6.8407079    0.9310824   0.29654552     4014.183   0.99646677 
   35000   -7.2854534   0.44559933   -6.8398541   0.85696528    0.2971405    4018.5913   0.99537367 
   36000    -7.287674   0.45358535   -6.8340886   0.79267233   0.30246585    4022.0475   0.99451835 
   37000    -7.282638   0.44503868   -6.8375993   0.87489799   0.29676664    4018.4707   0.99540355 
   38000    -7.296019   0.44988155   -6.8461374   0.92180948   0.29999603    4011.0187   0.99725289 
   39000   -7.2942128   0.45030714   -6.8439057    0.9865039   0.30027983    4007.5574   0.99811421 
   40000   -7.2914227   0.45210189   -6.8393208    1.0090327   0.30147663    4006.6982   0.99832825 
   41000   -7.2980001   0.45786904   -6.8401311   0.99615494   0.30532236    4005.5159   0.99862292 
   42000   -7.2960957   0.44700413   -6.8490916    1.0442873   0.29807727    4002.1476    0.9994634 
   43000    -7.293121   0.44943198   -6.8436891    1.0321411   0.29969624     4003.855   0.99903719 
   44000   -7.2940704   0.45698135    -6.837089    1.0033164   0.30473042    4005.1647   0.99871049 
   45000   -7.2940905   0.44903988   -6.8450506    1.0610805   0.29943478    4001.8949   0.99952649 
   46000   -7.3079774   0.45575805   -6.8522193    1.0189722   0.30391468    3999.3174    1.0001707 
   47000   -7.2953795   0.45732655   -6.8380529     1.057447   0.30496061    4001.8919   0.99952724 
   48000     -7.29117   0.45933717   -6.8318328    1.0419201   0.30630136    4004.8614   0.99878614 
   49000   -7.2955521   0.44070383   -6.8548482    1.0697299   0.29387602    4000.8251   0.99979377 
   50000   -7.2991142    0.4408558   -6.8582584    0.9890484   0.29397736    4004.5958   0.99885236 
   51000   -7.2991859   0.44425156   -6.8549343   0.92152747   0.29624177    4008.2633   0.99793843 
   52000   -7.2992832   0.45578974   -6.8434934    0.8412058   0.30393581    4014.0438   0.99650133 
   53000   -7.2914094   0.44342705   -6.8479824   0.95782322   0.29569195    4009.2022   0.99770473 
   54000   -7.3092269   0.44545072   -6.8637762    0.9480019   0.29704141    4003.6688   0.99908364 
   55000   -7.2915247     0.437903   -6.8536217    1.0119754   0.29200834    4005.0815   0.99873124 
   56000    -7.307715   0.44710525   -6.8606097   0.99228466    0.2981447    4001.2648   0.99968391 
   57000   -7.3152147   0.44818336   -6.8670313    1.0125138   0.29886362    3998.2396    1.0004403 
   58000   -7.3150192   0.44875474   -6.8662645     1.035514   0.29924464    3995.8063    1.0010495 
   59000   -7.3225941   0.45625189   -6.8663422    1.0196042   0.30424399    3994.7588     1.001312 
   60000   -7.3306101   0.45522163   -6.8753885    1.0076774   0.30355697    3992.7451     1.001817 
   61000   -7.3360451   0.45557425   -6.8804708    1.0226158   0.30379211    3989.7404    1.0025715 
   62000   -7.3288328   0.46002478    -6.868808     1.027702   0.30675988    3992.6165    1.0018493 
   63000    -7.344018   0.45652703    -6.887491   0.97141658   0.30442746    3990.4523    1.0023926 
   64000   -7.3474129   0.44163346   -6.9057794   0.95680079   0.29449593    3988.6314    1.0028502 
   65000   -7.3540669    0.4473758   -6.9066911   0.92764553   0.29832511    3989.3313    1.0026743 
   66000   -7.3420578   0.45046637   -6.8915914   0.95712716   0.30038601    3992.8459    1.0017917 
   67000    -7.352229   0.44962925   -6.9025997   0.95880804   0.29982779    3988.2386     1.002949 
   68000    -7.370592    0.4514581   -6.9191339      0.90757   0.30104733    3985.2688    1.0036964 
   69000   -7.3672738     0.447419   -6.9198548   0.94870965   0.29835392    3982.9346    1.0042846 
   70000   -7.3734515   0.44660329   -6.9268483   0.97780962   0.29780998    3978.7648    1.0053371 
   71000   -7.3785759   0.44539278   -6.9331831    1.0120676   0.29700277    3975.3426    1.0062026 
   72000   -7.3814915   0.44795124   -6.9335402   0.99169571   0.29870883    3976.3325    1.0059521 
   73000   -7.3799623   0.45425065   -6.9257117    1.0067895    0.3029095    3975.5069     1.006161 
   74000   -7.3934707   0.45526439   -6.9382063    1.0320267   0.30358549     3969.095    1.0077864 
   75000   -7.3953402   0.44762031   -6.9477199    1.0781734   0.29848816    3965.5773    1.0086804 
   76000   -7.3989401   0.45631034   -6.9426297    1.0974996   0.30428296    3962.7695    1.0093951 
   77000   -7.4074105   0.45911519   -6.9482953    1.1446267   0.30615333    3957.6006    1.0107134 
   78000   -7.4303415   0.45855795   -6.9717836    1.1202107   0.30578174      3950.67    1.0124865 
   79000   -7.4429258   0.46519206   -6.9777337    1.0935844   0.31020559    3948.0358     1.013162 
   80000   -7.4570371   0.45425443   -7.0027826    1.0376435   0.30291201    3946.4939    1.0135579 
   81000   -7.4680554   0.45755536      -7.0105   0.99689564   0.30511318    3945.2678    1.0138729 
   82000   -7.4918059   0.44699485   -7.0448111   0.99524643   0.29807108    3937.2689    1.0159326 
   83000   -7.4890067   0.45571212   -7.0332945    1.0529836   0.30388405    3934.9169    1.0165399 
   84000   -7.5027828   0.44632022   -7.0564626    1.0536143   0.29762122    3929.9295      1.01783 
   85000   -7.5226171    0.4480615   -7.0745556    1.0352418   0.29878236    3925.0787    1.0190879 
   86000   -7.5277134   0.45365544   -7.0740579     1.002715   0.30251259    3925.6788    1.0189321 
   87000   -7.5460258   0.45489793   -7.0911279   0.97411889   0.30334112      3921.49    1.0200205 
   88000   -7.5499143   0.44574336   -7.1041709   0.99832497   0.29723655    3916.3286    1.0213648 
   89000   -7.5506794    0.4536729   -7.0970065    1.0230605   0.30252423    3915.6606     1.021539 
   90000   -7.5716368   0.44430905   -7.1273277    1.0571463    0.2962801    3906.2896    1.0239896 
   91000   -7.5695107   0.44804348   -7.1214672    1.0454566   0.29877035    3907.9966    1.0235423 
   92000   -7.5656589   0.45549435   -7.1101646    1.0552881   0.30373883    3909.8239     1.023064 
   93000   -7.5632215   0.45441795   -7.1088035    1.0655658   0.30302106     3909.545     1.023137 
   94000   -7.5765024   0.45058047    -7.125922    1.0661335   0.30046209    3905.1527    1.0242877 
   95000   -7.5640817     0.451233   -7.1128487    1.0320941   0.30089722    3911.2146    1.0227002 
   96000   -7.5787981   0.45143033   -7.1273678   0.98128536   0.30102881    3909.0038    1.0232786 
   97000   -7.5757541    0.4562285   -7.1195256   0.98270881   0.30422839    3910.8497    1.0227956 
   98000   -7.5850611   0.45422578   -7.1308353   0.98012331   0.30289291    3907.1169    1.0237728 
   99000   -7.5771787   0.45154074    -7.125638   0.98685846   0.30110244    3909.0049    1.0232783 
  100000   -7.5687862    0.4475296   -7.1212566    1.0108008   0.29842767     3911.672    1.0225806 
Loop time of 680.429 on 2 procs for 100000 steps with 4000 atoms

Performance: 63489.379 tau/day, 146.966 timesteps/s
98.9% CPU use with 2 MPI tasks x no OpenMP threads

MPI task timing breakdown:
Section |  min time  |  avg time  |  max time  |%varavg| %total
---------------------------------------------------------------
Pair    | 582.6      | 585.15     | 587.7      |  10.5 | 86.00
Neigh   | 57.083     | 57.306     | 57.528     |   2.9 |  8.42
Comm    | 19.006     | 21.773     | 24.539     |  59.3 |  3.20
Output  | 0.31235    | 0.31307    | 0.3138     |   0.1 |  0.05
Modify  | 14.18      | 14.181     | 14.182     |   0.0 |  2.08
Other   |            | 1.703      |            |       |  0.25

Nlocal:    2000 ave 2008 max 1992 min
Histogram: 1 0 0 0 0 0 0 0 0 1
Nghost:    6643.5 ave 6651 max 6636 min
Histogram: 1 0 0 0 0 0 0 0 0 1
Neighs:    233634 ave 235237 max 232032 min
Histogram: 1 0 0 0 0 0 0 0 0 1

Total # of neighbors = 467269
Ave neighs/atom = 116.817
Neighbor list builds = 5000
Dangerous builds not checked
unfix   intnpt
undump  id

#Using Nvt to calculate the rdf and msd
compute   msd all msd average yes
compute   rdfnvt all rdf 100 1 1
fix       rdfnvt all ave/time ${Nevery} ${Nrepeat} ${Nfreq} c_rdfnvt[*] file systemnvt.rdf.${temp} mode vector
fix       rdfnvt all ave/time 1000 ${Nrepeat} ${Nfreq} c_rdfnvt[*] file systemnvt.rdf.${temp} mode vector
fix       rdfnvt all ave/time 1000 100 ${Nfreq} c_rdfnvt[*] file systemnvt.rdf.${temp} mode vector
fix       rdfnvt all ave/time 1000 100 100000 c_rdfnvt[*] file systemnvt.rdf.${temp} mode vector
fix       rdfnvt all ave/time 1000 100 100000 c_rdfnvt[*] file systemnvt.rdf.0.3 mode vector
log       log.lammps.nvt.${temp}
log       log.lammps.nvt.0.3
