thermo		${nthermo}
thermo		1000
thermo_style custom step pe ke etotal press temp vol density
dump		id all atom 1000 out.dump.npt.${temp}.lammpstrj
dump		id all atom 1000 out.dump.npt.0.4.lammpstrj
restart 100000 restartnvt1.data restartnvt2.data

fix 		intnpt all npt temp ${temp} ${temp} ${tdamp} iso ${pext} ${pext} ${pdamp}
fix 		intnpt all npt temp 0.4 ${temp} ${tdamp} iso ${pext} ${pext} ${pdamp}
fix 		intnpt all npt temp 0.4 0.4 ${tdamp} iso ${pext} ${pext} ${pdamp}
fix 		intnpt all npt temp 0.4 0.4 1 iso ${pext} ${pext} ${pdamp}
fix 		intnpt all npt temp 0.4 0.4 1 iso 1 ${pext} ${pdamp}
fix 		intnpt all npt temp 0.4 0.4 1 iso 1 1 ${pdamp}
fix 		intnpt all npt temp 0.4 0.4 1 iso 1 1 10
run		  100000
Neighbor list info ...
  update every 20 steps, delay 0 steps, check no
  max neighbors/atom: 2000, page size: 100000
  master list distance cutoff = 3.8
  ghost atom cutoff = 3.8
  binsize = 1.9, bins = 9 9 9
  1 neighbor lists, perpetual/occasional/extra = 1 0 0
  (1) pair lj/cut, perpetual
      attributes: half, newton on
      pair build: half/bin/atomonly/newton
      stencil: half/bin/3d/newton
      bin: standard
Per MPI rank memory allocation (min/avg/max) = 4.752 | 4.752 | 4.752 Mbytes
Step PotEng KinEng TotEng Press Temp Volume Density 
  500000   -7.7984687   0.44452683   -7.3539418  -0.28965184   0.29642532     3911.672    1.0225806 
  501000   -7.6808169   0.59311023   -7.0877067    1.0898384    0.3955057    3872.1432    1.0330197 
  502000   -7.6856498   0.59873871   -7.0869111    1.0644269   0.39925895    3872.5874    1.0329012 
  503000   -7.6593111   0.60089501   -7.0584161   0.95375814   0.40069685     3887.615    1.0289085 
  504000   -7.6673512   0.60782146   -7.0595297   0.94833768   0.40531564    3885.7474     1.029403 
  505000   -7.6858312   0.60582539   -7.0800058   0.99123745   0.40398459    3876.9833      1.03173 
  506000    -7.677924   0.59760409   -7.0803199    1.0049171   0.39850235    3878.2538     1.031392 
  507000    -7.668016   0.59677804   -7.0712379   0.98268028   0.39795151    3882.6849     1.030215 
  508000   -7.6711171   0.60385574   -7.0672614   0.99115408   0.40267116     3881.575    1.0305095 
  509000   -7.6769442   0.59438615    -7.082558      1.06387   0.39635652    3874.7423    1.0323267 
  510000   -7.6724899   0.59590804   -7.0765819    1.0064364   0.39737137      3879.67    1.0310155 
  511000   -7.6677587   0.60222355   -7.0655351    1.0415796   0.40158276    3879.1813    1.0311454 
  512000    -7.655753   0.61350359   -7.0422494   0.89451181   0.40910467    3892.8265     1.027531 
  513000   -7.6669634   0.59732442    -7.069639    1.1380442   0.39831586     3874.041    1.0325136 
  514000   -7.6832389   0.60493287   -7.0783061    1.0058484   0.40338943    3876.2753    1.0319185 
  515000   -7.6671682   0.59291137   -7.0742568    0.8380709   0.39537309    3891.5634    1.0278645 
  516000   -7.6758778   0.61290048   -7.0629773   0.96409618    0.4087025    3881.9324    1.0304146 
  517000   -7.6772785    0.6047677   -7.0725108    1.1352313   0.40327929     3870.386    1.0334886 
  518000    -7.652269   0.59609344   -7.0561756   0.94726724     0.397495    3890.2319    1.0282163 
  519000   -7.6615769   0.60918291    -7.052394   0.91888398   0.40622349    3889.5547    1.0283953 
  520000   -7.6743569   0.59704798   -7.0773089    1.0362214   0.39813152    3877.5676    1.0315745 
  521000   -7.6785195    0.5974637   -7.0810558    1.0075087   0.39840874     3877.319    1.0316407 
  522000   -7.6591718   0.59325817   -7.0659136   0.99776822   0.39560435    3884.2912    1.0297889 
  523000   -7.6649267   0.60281192   -7.0621148    1.0080423   0.40197511    3882.7135    1.0302074 
  524000    -7.675064   0.59841972   -7.0766443    1.0057027   0.39904624    3878.9943    1.0311951 
  525000    -7.678911   0.59694369   -7.0819673    1.0610804   0.39806198    3874.3921      1.03242 
  526000   -7.6700519   0.58427877   -7.0857732    1.0528828   0.38961658    3877.1218    1.0316931 
  527000   -7.6586802    0.5883135   -7.0703667   0.93957642   0.39230708    3887.8081    1.0288574 
  528000   -7.6652405   0.59420237   -7.0710382     1.049668   0.39623397    3878.9242    1.0312138 
  529000   -7.6768317   0.59564947   -7.0811822    1.1525649   0.39719895    3869.0114    1.0338558 
  530000   -7.6687858   0.59547258   -7.0733132    0.8840671   0.39708099    3888.0804    1.0287853 
  531000   -7.6685494   0.59071655   -7.0778329    1.0289415   0.39390951    3880.2666     1.030857 
  532000   -7.6770998   0.60446326   -7.0726365     1.144154   0.40307628    3870.4326    1.0334762 
  533000   -7.6801805   0.61103861   -7.0691419   0.92709273   0.40746094    3882.5584    1.0302485 
  534000   -7.6613563     0.599574   -7.0617823   0.88207126   0.39981595    3890.6605    1.0281031 
  535000   -7.6727612   0.59668107   -7.0760801    1.0148687   0.39788685    3879.1858    1.0311442 
  536000   -7.6796093   0.59938773   -7.0802216    1.0363359   0.39969174      3875.73    1.0320636 
  537000   -7.6621957   0.59303271    -7.069163    1.0110098     0.395454      3882.75    1.0301977 
  538000   -7.6747665   0.59499778   -7.0797687   0.95268253   0.39676437    3882.0255    1.0303899 
  539000   -7.6875238   0.59834234   -7.0891815    1.0947491   0.39899464    3869.1819    1.0338103 
  540000   -7.6643141   0.60176759   -7.0625465    1.0304937   0.40127872    3880.9658    1.0306713 
  541000   -7.6688802   0.60351781   -7.0653624   0.87641236   0.40244582    3889.4263    1.0284293 
  542000   -7.6604619   0.60108273   -7.0593792    1.0351886   0.40082203    3881.7958    1.0304509 
  543000   -7.6771063   0.60773198   -7.0693743    1.0429122   0.40525597    3877.0082    1.0317234 
  544000    -7.672932   0.59545084   -7.0774812    0.9899341   0.39706649    3881.1663    1.0306181 
  545000   -7.6694726   0.60462816   -7.0648445   0.91986241   0.40318624    3886.5297    1.0291958 
  546000   -7.6733947   0.60426196   -7.0691328    1.0179828   0.40294204    3879.6675    1.0310162 
  547000   -7.6715122   0.57826269   -7.0932495    1.1653114   0.38560486    3870.0471    1.0335791 
  548000   -7.6785345   0.59730342   -7.0812311   0.86717614   0.39830186    3886.6394    1.0291667 
  549000   -7.6637057   0.59623275   -7.0674729   0.99711409    0.3975879     3883.449    1.0300122 
  550000   -7.6846044   0.60344351   -7.0811609    1.1043417   0.40239627    3870.4763    1.0334645 
  551000   -7.6764747   0.59967321   -7.0768014    1.0213934   0.39988211     3878.028    1.0314521 
  552000   -7.6636016   0.59675571   -7.0668459   0.78109931   0.39793662     3895.985     1.026698 
  553000   -7.6805069   0.61087841   -7.0696285   0.99446221   0.40735411    3878.0181    1.0314547 
  554000    -7.685039    0.6072915   -7.0777475    1.1587621   0.40496224    3867.0824    1.0343716 
  555000   -7.6757525     0.600055   -7.0756975   0.92924297    0.4001367    3883.3109    1.0300489 
  556000    -7.667631   0.60054648   -7.0670845   0.88979539   0.40046444    3888.1983    1.0287541 
  557000   -7.6814084    0.6071528   -7.0742556    1.0077125   0.40486975    3876.6145    1.0318282 
  558000   -7.6911014   0.60898965   -7.0821118     1.041675   0.40609462    3872.0414    1.0330468 
  559000   -7.6617164   0.59007939    -7.071637    1.0363058   0.39348463    3881.0948     1.030637 
  560000    -7.661458   0.59636665   -7.0650913   0.95887493   0.39767718    3885.9544    1.0293482 
  561000   -7.6621793   0.59880754   -7.0633718    1.0698265   0.39930485    3879.3648    1.0310966 
  562000   -7.6745654   0.58969443    -7.084871    1.1074842   0.39322793     3872.765    1.0328538 
  563000   -7.6802146   0.59439535   -7.0858192   0.92042234   0.39636266    3882.4102    1.0302878 
  564000   -7.6734049   0.59996677   -7.0734381   0.92437774   0.40007787    3884.6556    1.0296923 
  565000   -7.6610339   0.60357394   -7.0574599    1.1736162   0.40248325    3873.6465    1.0326188 
  566000   -7.6780118   0.58844968   -7.0895621    1.0853551   0.39239789    3873.2574    1.0327225 
  567000   -7.6682102   0.59012772   -7.0780825   0.86812675   0.39351686    3889.4479    1.0284236 
  568000   -7.6645773   0.60432918   -7.0602481    0.9627405   0.40298687    3884.5846    1.0297111 
  569000   -7.6589788   0.60383023   -7.0551486    1.1121179   0.40265415    3877.8781    1.0314919 
  570000   -7.6729195   0.60158979   -7.0713298    1.0061731   0.40116015    3879.2388    1.0311301 
  571000   -7.6676755   0.58116154    -7.086514   0.99995105   0.38753791    3880.9121    1.0306855 
  572000   -7.6746189   0.58693731   -7.0876816   0.98986821   0.39138939    3879.4873    1.0310641 
  573000   -7.6758051   0.60349429   -7.0723108     1.060751   0.40243013    3875.8423    1.0320337 
  574000   -7.6641941   0.62541149   -7.0387826   0.95574349   0.41704525    3886.6947    1.0291521 
  575000   -7.6747543   0.59344156   -7.0813128   0.97732009   0.39572664    3880.6188    1.0307634 
  576000   -7.6781922   0.59711975   -7.0810724   0.95251754   0.39817938    3881.4555    1.0305413 
  577000   -7.6624643     0.611442   -7.0510223    1.0601646   0.40772994    3880.5378     1.030785 
  578000   -7.6630931   0.60833878   -7.0547543     1.112303    0.4056606    3877.0011    1.0317253 
  579000   -7.6926694   0.59297631   -7.0996931   0.76343787   0.39541639    3886.9913    1.0290736 
  580000   -7.6733459   0.60114361   -7.0722023   0.87125506   0.40086263    3887.5606    1.0289229 
  581000   -7.6702744   0.60704396   -7.0632305    1.1469808   0.40479718    3871.9677    1.0330665 
  582000   -7.6784272   0.59577777   -7.0826495    1.0386087    0.3972845    3875.8674    1.0320271 
  583000   -7.6758368   0.59475066   -7.0810861   0.88829794   0.39659959    3885.8103    1.0293863 
  584000   -7.6677823   0.60642029   -7.0613621   0.99091847   0.40438129    3882.1821    1.0303484 
  585000   -7.6734779   0.60326451   -7.0702134    1.0409028   0.40227691    3877.1323    1.0316904 
  586000   -7.6799886   0.58891322   -7.0910754    1.0021999   0.39270699    3876.8113    1.0317758 
  587000   -7.6886316   0.59846972   -7.0901618   0.96885301   0.39907958    3876.9037    1.0317512 
  588000   -7.6742907   0.60139939   -7.0728913    1.0279861   0.40103319    3877.7108    1.0315364 
  589000   -7.6608721   0.60529529   -7.0555768    1.0884057    0.4036311    3878.4245    1.0313466 
  590000   -7.6729785   0.60106775   -7.0719107   0.82333553   0.40081204     3890.287    1.0282018 
  591000   -7.6662736   0.60181889   -7.0644547    1.0268821   0.40131292    3880.5867     1.030772 
  592000   -7.6690513   0.59520517   -7.0738461    1.2262902   0.39690267    3867.7243    1.0341999 
  593000   -7.6713367   0.60307648   -7.0682602   0.96037749   0.40215152    3882.8509    1.0301709 
  594000   -7.6667097   0.58655119   -7.0801585   0.92776897   0.39113191    3885.3117    1.0295184 
  595000   -7.6926506   0.58873671   -7.1039139    1.0149148   0.39258929    3872.1218    1.0330254 
  596000   -7.6711669   0.60574255   -7.0654244   0.99842679   0.40392935    3880.7972    1.0307161 
  597000   -7.6653221    0.6037016   -7.0616205   0.97888903   0.40256838    3883.4214    1.0300196 
  598000   -7.6699617   0.60318585   -7.0667758    1.0137315   0.40222445    3880.1631    1.0308845 
  599000   -7.6775596   0.59686345   -7.0806962   0.97647565   0.39800847    3879.5289     1.031053 
  600000   -7.6670242   0.59597969   -7.0710446    1.0393069   0.39741915    3878.9689    1.0312019 
Loop time of 668.51 on 2 procs for 100000 steps with 4000 atoms

Performance: 64621.340 tau/day, 149.586 timesteps/s
99.3% CPU use with 2 MPI tasks x no OpenMP threads

MPI task timing breakdown:
Section |  min time  |  avg time  |  max time  |%varavg| %total
---------------------------------------------------------------
Pair    | 579.72     | 580.32     | 580.92     |   2.5 | 86.81
Neigh   | 56.62      | 56.795     | 56.971     |   2.3 |  8.50
Comm    | 15.481     | 15.91      | 16.338     |  10.7 |  2.38
Output  | 0.30043    | 0.30114    | 0.30185    |   0.1 |  0.05
Modify  | 13.498     | 13.502     | 13.506     |   0.1 |  2.02
Other   |            | 1.68       |            |       |  0.25

Nlocal:    2000 ave 2007 max 1993 min
Histogram: 1 0 0 0 0 0 0 0 0 1
Nghost:    6641 ave 6643 max 6639 min
Histogram: 1 0 0 0 0 0 0 0 0 1
Neighs:    235170 ave 235953 max 234388 min
Histogram: 1 0 0 0 0 0 0 0 0 1

Total # of neighbors = 470341
Ave neighs/atom = 117.585
Neighbor list builds = 5000
Dangerous builds not checked
unfix   intnpt
undump  id

#Using Nvt to calculate the rdf and msd
compute   msd all msd average yes
compute   rdfnvt all rdf 100 1 1
fix       rdfnvt all ave/time ${Nevery} ${Nrepeat} ${Nfreq} c_rdfnvt[*] file systemnvt.rdf.${temp} mode vector
fix       rdfnvt all ave/time 1000 ${Nrepeat} ${Nfreq} c_rdfnvt[*] file systemnvt.rdf.${temp} mode vector
fix       rdfnvt all ave/time 1000 100 ${Nfreq} c_rdfnvt[*] file systemnvt.rdf.${temp} mode vector
fix       rdfnvt all ave/time 1000 100 100000 c_rdfnvt[*] file systemnvt.rdf.${temp} mode vector
fix       rdfnvt all ave/time 1000 100 100000 c_rdfnvt[*] file systemnvt.rdf.0.4 mode vector
log       log.lammps.nvt.${temp}
log       log.lammps.nvt.0.4
