thermo		${nthermo}
thermo		1000
thermo_style custom step pe ke etotal press temp vol density
dump		id all atom 1000 out.dump.npt.${temp}.lammpstrj
dump		id all atom 1000 out.dump.npt.1.lammpstrj
restart 100000 restartnvt1.data restartnvt2.data

fix 		intnpt all npt temp ${temp} ${temp} ${tdamp} iso ${pext} ${pext} ${pdamp}
fix 		intnpt all npt temp 1 ${temp} ${tdamp} iso ${pext} ${pext} ${pdamp}
fix 		intnpt all npt temp 1 1 ${tdamp} iso ${pext} ${pext} ${pdamp}
fix 		intnpt all npt temp 1 1 1 iso ${pext} ${pext} ${pdamp}
fix 		intnpt all npt temp 1 1 1 iso 1 ${pext} ${pdamp}
fix 		intnpt all npt temp 1 1 1 iso 1 1 ${pdamp}
fix 		intnpt all npt temp 1 1 1 iso 1 1 10
run		  100000
Neighbor list info ...
  update every 20 steps, delay 0 steps, check no
  max neighbors/atom: 2000, page size: 100000
  master list distance cutoff = 3.8
  ghost atom cutoff = 3.8
  binsize = 1.9, bins = 9 9 9
  1 neighbor lists, perpetual/occasional/extra = 1 0 0
  (1) pair lj/cut, perpetual
      attributes: half, newton on
      pair build: half/bin/atomonly/newton
      stencil: half/bin/3d/newton
      bin: standard
Per MPI rank memory allocation (min/avg/max) = 4.365 | 4.365 | 4.365 Mbytes
Step PotEng KinEng TotEng Press Temp Volume Density 
 3500000   -5.5350104    1.3435523   -4.1914581    1.0923615   0.89592549    4912.1546   0.81430661 
 3501000    -5.300734    1.4757084   -3.8250257   0.92877772   0.98405159     5099.306   0.78442047 
 3502000   -5.2640758    1.5191727   -3.7449031   0.89857599     1.013035    5141.9069   0.77792152 
 3503000   -5.3063374    1.5016278   -3.8047096    1.0314302    1.0013355    5087.1419   0.78629613 
 3504000   -5.2325447    1.5331479   -3.6993967    1.0222339    1.0223542    5138.8656    0.7783819 
 3505000   -5.2882868    1.5089585   -3.7793283    1.0027246    1.0062239    5101.3984   0.78409872 
 3506000   -5.2583227    1.5173345   -3.7409881    1.0051289    1.0118093    5121.2204   0.78106382 
 3507000   -5.2457222    1.5083349   -3.7373872    1.1002387    1.0058081    5121.5358   0.78101572 
 3508000   -5.2721003    1.5381679   -3.7339324    1.0014631    1.0257017    5116.7629   0.78174426 
 3509000   -5.2396036    1.4994899   -3.7401137    1.2501497   0.99990993    5100.7777   0.78419415 
 3510000   -5.2753859    1.5336065   -3.7417794   0.96150305      1.02266    5119.1057   0.78138649 
 3511000   -5.2915021    1.4908462    -3.800656    1.0565884   0.99414598    5085.1243    0.7866081 
 3512000   -5.2527802    1.5033677   -3.7494125   0.89061597    1.0024957    5144.3281   0.77755538 
 3513000    -5.281683    1.5059559   -3.7757271   0.93522397    1.0042216    5125.2962    0.7804427 
 3514000   -5.2739815    1.5163227   -3.7576587    1.0119348    1.0111346    5111.5634   0.78253945 
 3515000   -5.2820465    1.5306297   -3.7514168    1.0804175    1.0206749    5104.1535   0.78367549 
 3516000   -5.2752937    1.5391312   -3.7361625   0.99458754    1.0263441    5124.3422     0.780588 
 3517000   -5.3002628    1.5081139    -3.792149   0.92961741    1.0056607    5107.1819    0.7832108 
 3518000    -5.280156    1.4591992   -3.8209568   0.90443859   0.97304274    5117.4247   0.78164315 
 3519000   -5.2689553    1.4697192   -3.7992362   0.96282236    0.9800578    5126.6527    0.7802362 
 3520000   -5.2684837    1.4976191   -3.7708646   0.91151741    0.9986624    5133.2716   0.77923016 
 3521000   -5.2325623    1.4790189   -3.7535434   0.90503957   0.98625916    5160.9801   0.77504659 
 3522000   -5.2892675    1.5112791   -3.7779884    0.9782129    1.0077714    5110.0319   0.78277398 
 3523000   -5.2605656    1.4753159   -3.7852497     0.956717   0.98378991    5128.0197    0.7800282 
 3524000   -5.2672314    1.5031456   -3.7640857   0.98238346    1.0023477    5123.9579   0.78064653 
 3525000   -5.2824256    1.4941533   -3.7882724    1.0392376   0.99635126    5096.6874    0.7848235 
 3526000   -5.2364786    1.5142462   -3.7222324    1.0002206    1.0097499    5141.0247   0.77805501 
 3527000   -5.3096997    1.5185094   -3.7911903   0.93981138    1.0125927    5094.9004   0.78509876 
 3528000   -5.2580763    1.4885385   -3.7695377   0.94114136   0.99260717    5130.7252   0.77961688 
 3529000    -5.267746    1.5097122   -3.7580338   0.88769076    1.0067265    5137.5686   0.77857841 
 3530000   -5.3062957    1.4949019   -3.8113938   0.94435736   0.99685049    5099.3341   0.78441615 
 3531000   -5.2397773    1.5019572   -3.7378201   0.93096598    1.0015552    5150.6772    0.7765969 
 3532000   -5.2900111    1.4994796   -3.7905316    1.0192968   0.99990303    5098.8441   0.78449153 
 3533000   -5.2458013    1.5083394   -3.7374619    1.0032039    1.0058111     5135.343   0.77891584 
 3534000   -5.2753462    1.5105446   -3.7648016    1.0800389    1.0072815    5101.9265   0.78401757 
 3535000   -5.2497341    1.5139282    -3.735806    1.0050261    1.0095378    5132.2477    0.7793856 
 3536000   -5.2788716    1.5071314   -3.7717402   0.99750602    1.0050055    5108.2027   0.78305428 
 3537000   -5.2620542    1.4866985   -3.7753558   0.89826568   0.99138015     5132.177   0.77939635 
 3538000    -5.269507    1.4888218   -3.7806852   0.98213657   0.99279604    5118.8644   0.78142332 
 3539000   -5.2803326    1.4866626     -3.79367   0.86582354   0.99135626    5128.8868   0.77989632 
 3540000   -5.3119791    1.4927324   -3.8192466   0.95957139   0.99540381    5087.6528   0.78621717 
 3541000   -5.2388685    1.5367828   -3.7020857    1.0597842    1.0247781    5135.6311   0.77887214 
 3542000    -5.269769    1.5168378   -3.7529312    1.0492697    1.0114781    5111.5657    0.7825391 
 3543000   -5.2419228    1.5162625   -3.7256604    1.0705487    1.0110944    5130.5579   0.77964231 
 3544000    -5.271584    1.5058434   -3.7657406    1.0426972    1.0041467     5113.728    0.7822082 
 3545000   -5.2584595    1.5478763   -3.7105831    1.0414468    1.0321756    5128.6362   0.77993444 
 3546000   -5.2758295    1.4868119   -3.7890176   0.97885196   0.99145581    5107.2146   0.78320577 
 3547000   -5.2844686    1.5180588   -3.7664098   0.78237257    1.0122923    5140.3793    0.7781527 
 3548000   -5.2468993    1.4775796   -3.7693197    1.0582665   0.98529938    5119.1403   0.78138121 
 3549000   -5.2883375    1.4998793   -3.7884582    1.0941171    1.0001696    5091.2794   0.78565713 
 3550000     -5.25131    1.5066611   -3.7446489   0.95669105    1.0046919    5138.6779   0.77841034 
 3551000   -5.2888102    1.4494879   -3.8393223   0.94074414   0.96656691    5109.8713   0.78279857 
 3552000   -5.2589333    1.4845326   -3.7744008   0.93307164   0.98993586    5132.0295   0.77941874 
 3553000   -5.3117472    1.5047893   -3.8069579   0.94254966    1.0034437     5090.042   0.78584813 
 3554000   -5.2791728    1.4653276   -3.8138452     1.101898   0.97712932    5086.6288   0.78637545 
 3555000   -5.2358347    1.4998799   -3.7359548    1.0154535      1.00017    5143.8933   0.77762111 
 3556000   -5.3185937    1.4801181   -3.8384756    1.0554738   0.98699214    5074.7993    0.7882085 
 3557000    -5.265899    1.5070145   -3.7588845   0.98156632    1.0049276    5121.4094   0.78103501 
 3558000   -5.2834614    1.5297912   -3.7536702   0.93521096    1.0201158    5124.2829   0.78059703 
 3559000   -5.2823649     1.503514   -3.7788509   0.93916268    1.0025933    5123.2367   0.78075644 
 3560000    -5.252089    1.4858693   -3.7662196   0.86433053   0.99082725    5146.4902   0.77722873 
 3561000   -5.3167303    1.4884782   -3.8282521   0.96983605   0.99256691    5092.2664   0.78550486 
 3562000   -5.2358161    1.5212929   -3.7145232    1.0407182    1.0144489    5138.6316   0.77841734 
 3563000   -5.2760066    1.5316608   -3.7443458    1.0575599    1.0213625    5103.3818   0.78379399 
 3564000   -5.2759021    1.5324373   -3.7434649    1.0577559    1.0218803    5110.1117   0.78276176 
 3565000   -5.2180102    1.4965538   -3.7214564   0.96541758   0.99795203    5157.9476   0.77550225 
 3566000   -5.2908218    1.4815883   -3.8092335    1.1091766    0.9879725    5088.0313   0.78615868 
 3567000   -5.2230043     1.494475   -3.7285293   0.86528681    0.9965658    5172.7268   0.77328654 
 3568000   -5.2821122     1.486375   -3.7957372    1.1510221   0.99116449    5082.2127   0.78705876 
 3569000   -5.2702536    1.5160108   -3.7542428   0.91900428    1.0109266    5136.8098   0.77869342 
 3570000   -5.2429451    1.4876385   -3.7553066    1.0416757   0.99200699    5126.2425   0.78029863 
 3571000    -5.275368    1.4869081   -3.7884599    1.1247917   0.99151994    5096.7927   0.78480728 
 3572000   -5.2002449    1.4890824   -3.7111625   0.83521042   0.99296981    5193.3265   0.77021924 
 3573000   -5.3235665    1.4867189   -3.8368475    1.0603504   0.99139381    5065.1651   0.78970772 
 3574000   -5.2655756    1.5157516   -3.7498241   0.93067419    1.0107537    5131.6817   0.77947157 
 3575000   -5.2683765    1.4990683   -3.7693082   0.98321334   0.99962879    5123.6737   0.78068984 
 3576000   -5.2415938    1.4804239   -3.7611698    1.0697952   0.98719609     5122.263   0.78090485 
 3577000   -5.2488922    1.4827748   -3.7661174     1.083081   0.98876373    5113.1903   0.78229046 
 3578000   -5.3269415    1.5296128   -3.7973287    1.0634289    1.0199968     5068.062   0.78925632 
 3579000   -5.2493894    1.5067108   -3.7426786    1.0038655     1.004725    5131.0479   0.77956786 
 3580000   -5.3011851    1.5004777   -3.8007073    1.1522725    1.0005686    5075.2472   0.78813895 
 3581000   -5.2600899    1.5059227   -3.7541672   0.91998221    1.0041995    5133.1161   0.77925376 
 3582000   -5.2607576    1.4832905   -3.7774671   0.93948389    0.9891076    5130.0606   0.77971789 
 3583000   -5.2682159    1.4963633   -3.7718527     1.102102   0.99782496    5104.1924   0.78366951 
 3584000   -5.2799673    1.5183307   -3.7616366    1.1741495    1.0124736    5077.8042   0.78774207 
 3585000   -5.2594977    1.5012015   -3.7582962    1.0416806    1.0010512     5118.215   0.78152246 
 3586000   -5.2371431    1.4868673   -3.7502758    1.0078555   0.99149275    5136.9116   0.77867799 
 3587000   -5.3286135    1.5071146    -3.821499   0.93693542    1.0049943    5085.7683    0.7865085 
 3588000   -5.2217362     1.517841   -3.7038952    1.0386542     1.012147    5149.9226    0.7767107 
 3589000   -5.3131889    1.4968296   -3.8163593    1.1734899   0.99813594    5060.0097   0.79051231 
 3590000   -5.2469576    1.4947193   -3.7522383    0.9308159    0.9967287    5146.8811   0.77716969 
 3591000   -5.2793001    1.4978764   -3.7814238     1.030639   0.99883395    5100.7966   0.78419124 
 3592000   -5.3082625    1.5321932   -3.7760693    1.0325451    1.0217175    5086.7427   0.78635784 
 3593000    -5.301722    1.5165605   -3.7851616   0.99163428    1.0112931    5095.5804   0.78499399 
 3594000   -5.2399749     1.498114   -3.7418609   0.86091364   0.99899239    5156.6666   0.77569491 
 3595000    -5.303798    1.4950618   -3.8087362     1.029333   0.99695712     5087.153   0.78629441 
 3596000   -5.2340399    1.5281526   -3.7058873   0.93016056    1.0190231    5157.1624   0.77562033 
 3597000    -5.261961    1.4916489   -3.7703121    1.0635474   0.99468128    5115.1933   0.78198414 
 3598000   -5.2676178    1.5290115   -3.7386063    1.0077277    1.0195959    5120.8202   0.78112486 
 3599000   -5.2494472    1.4981602    -3.751287    1.0104227    0.9990232    5127.7024   0.78007647 
 3600000   -5.3008613      1.46509   -3.8357713    1.0563843   0.97697089    5086.2218   0.78643838 
Loop time of 373.33 on 2 procs for 100000 steps with 4000 atoms

Performance: 115715.254 tau/day, 267.859 timesteps/s
98.9% CPU use with 2 MPI tasks x no OpenMP threads

MPI task timing breakdown:
Section |  min time  |  avg time  |  max time  |%varavg| %total
---------------------------------------------------------------
Pair    | 306.03     | 311.09     | 316.16     |  28.7 | 83.33
Neigh   | 31.426     | 31.643     | 31.861     |   3.9 |  8.48
Comm    | 14.161     | 19.446     | 24.731     | 119.8 |  5.21
Output  | 0.20723    | 0.20784    | 0.20844    |   0.1 |  0.06
Modify  | 9.9037     | 9.9056     | 9.9075     |   0.1 |  2.65
Other   |            | 1.034      |            |       |  0.28

Nlocal:    2000 ave 2007 max 1993 min
Histogram: 1 0 0 0 0 0 0 0 0 1
Nghost:    5807 ave 5829 max 5785 min
Histogram: 1 0 0 0 0 0 0 0 0 1
Neighs:    179394 ave 183111 max 175677 min
Histogram: 1 0 0 0 0 0 0 0 0 1

Total # of neighbors = 358788
Ave neighs/atom = 89.697
Neighbor list builds = 5000
Dangerous builds not checked
unfix   intnpt
undump  id

#Using Nvt to calculate the rdf and msd
compute   msd all msd average yes
compute   rdfnvt all rdf 100 1 1
fix       rdfnvt all ave/time ${Nevery} ${Nrepeat} ${Nfreq} c_rdfnvt[*] file systemnvt.rdf.${temp} mode vector
fix       rdfnvt all ave/time 1000 ${Nrepeat} ${Nfreq} c_rdfnvt[*] file systemnvt.rdf.${temp} mode vector
fix       rdfnvt all ave/time 1000 100 ${Nfreq} c_rdfnvt[*] file systemnvt.rdf.${temp} mode vector
fix       rdfnvt all ave/time 1000 100 100000 c_rdfnvt[*] file systemnvt.rdf.${temp} mode vector
fix       rdfnvt all ave/time 1000 100 100000 c_rdfnvt[*] file systemnvt.rdf.1 mode vector
log       log.lammps.nvt.${temp}
log       log.lammps.nvt.1
