thermo		${nthermo}
thermo		1000
thermo_style custom step pe ke etotal press temp vol density
dump		id all atom 1000 out.dump.npt.${temp}.lammpstrj
dump		id all atom 1000 out.dump.npt.1.3.lammpstrj
restart 100000 restartnvt1.data restartnvt2.data

fix 		intnpt all npt temp ${temp} ${temp} ${tdamp} iso ${pext} ${pext} ${pdamp}
fix 		intnpt all npt temp 1.3 ${temp} ${tdamp} iso ${pext} ${pext} ${pdamp}
fix 		intnpt all npt temp 1.3 1.3 ${tdamp} iso ${pext} ${pext} ${pdamp}
fix 		intnpt all npt temp 1.3 1.3 1 iso ${pext} ${pext} ${pdamp}
fix 		intnpt all npt temp 1.3 1.3 1 iso 1 ${pext} ${pdamp}
fix 		intnpt all npt temp 1.3 1.3 1 iso 1 1 ${pdamp}
fix 		intnpt all npt temp 1.3 1.3 1 iso 1 1 10
run		  100000
Neighbor list info ...
  update every 20 steps, delay 0 steps, check no
  max neighbors/atom: 2000, page size: 100000
  master list distance cutoff = 3.8
  ghost atom cutoff = 3.8
  binsize = 1.9, bins = 10 10 10
  1 neighbor lists, perpetual/occasional/extra = 1 0 0
  (1) pair lj/cut, perpetual
      attributes: half, newton on
      pair build: half/bin/atomonly/newton
      stencil: half/bin/3d/newton
      bin: standard
Per MPI rank memory allocation (min/avg/max) = 4.364 | 4.364 | 4.364 Mbytes
Step PotEng KinEng TotEng Press Temp Volume Density 
 5000000   -4.7618386    1.8119734   -2.9498652    1.0407056    1.2082843    5548.0573   0.72097309 
 5001000   -4.5128205    1.9223158   -2.5905047    1.0027111    1.2818644    5791.6576   0.69064857 
 5002000   -4.4265042    1.9510105   -2.4754937   0.87012015    1.3009989    5917.2743   0.67598692 
 5003000   -4.4701418     1.940352   -2.5297898   0.90059881    1.2938915    5872.3419   0.68115925 
 5004000   -4.4481547    1.9117468   -2.5364079   0.82105522    1.2748165    5900.4324   0.67791642 
 5005000    -4.441583    1.9125945   -2.5289885   0.98538018    1.2753819    5876.7458    0.6806488 
 5006000   -4.4103077    1.9007008   -2.5096069    1.0344989    1.2674507    5890.2757   0.67908536 
 5007000   -4.4273823    1.9317683    -2.495614    1.0725862    1.2881676    5879.8601   0.68028829 
 5008000   -4.4447863    1.9616421   -2.4831442    1.0861602    1.3080884     5839.863   0.68494757 
 5009000    -4.423431    1.9759996   -2.4474314    0.9589547    1.3176625    5911.8436   0.67660789 
 5010000    -4.442795    1.9478359   -2.4949591   0.98303021     1.298882     5876.378    0.6806914 
 5011000   -4.4660902    1.9651302     -2.50096    1.1730994    1.3104144    5813.7209   0.68802753 
 5012000   -4.4300945    1.9566179   -2.4734766   0.93954374    1.3047381     5894.719   0.67857348 
 5013000   -4.4451021    1.9698103   -2.4752918    1.0645815    1.3135353    5855.4063   0.68312937 
 5014000   -4.4563798    1.9729364   -2.4834434    1.0361821    1.3156198    5860.5705   0.68252741 
 5015000   -4.3820878    1.9594178     -2.42267   0.93066876    1.3066052    5964.2513   0.67066256 
 5016000   -4.4894136    1.9567639   -2.5326497     1.026245    1.3048355    5819.5567   0.68733758 
 5017000   -4.4619698    1.9624652   -2.4995045    1.0071941    1.3086373    5863.6081   0.68217384 
 5018000    -4.434321    1.9797235   -2.4545975   0.97941313    1.3201457    5892.0151   0.67888489 
 5019000   -4.4796506    1.9346902   -2.5449604     1.019772     1.290116    5828.8224   0.68624497 
 5020000      -4.4658    1.9056486   -2.5601515   0.98088226    1.2707501     5849.283    0.6838445 
 5021000   -4.4480634     1.914828   -2.5332354     1.030053    1.2768712    5855.9046   0.68307124 
 5022000   -4.4150165    1.9036989   -2.5113177     1.057321    1.2694499    5875.0695     0.680843 
 5023000   -4.3884971    1.9032144   -2.4852827   0.95142951    1.2691269    5925.8059   0.67501367 
 5024000   -4.4544461    1.9288997   -2.5255464    1.0334118    1.2862547     5849.662   0.68380019 
 5025000   -4.4559875    1.9761813   -2.4798062   0.84174056    1.3177836    5909.0764   0.67692474 
 5026000   -4.3955898    1.9065938    -2.488996    1.0534724    1.2713804    5913.8078   0.67638316 
 5027000   -4.4416618    1.9114231   -2.5302387    1.0686084    1.2746007    5856.8185   0.68296465 
 5028000   -4.4275428    1.9532427   -2.4743001   0.91735288    1.3024874    5903.9442   0.67751318 
 5029000   -4.4018594    1.9502651   -2.4515943   0.91497216    1.3005019    5944.4651   0.67289485 
 5030000   -4.4354119    1.9313162   -2.5040957    1.1146217    1.2878661    5848.2071   0.68397031 
 5031000   -4.4494963    1.9488876   -2.5006086    1.1147452    1.2995833    5841.8293   0.68471702 
 5032000   -4.3982148    1.9305252   -2.4676897    1.0079015    1.2873386    5918.2075   0.67588032 
 5033000   -4.4090809    1.9223447   -2.4867362    1.0490737    1.2818836    5890.5481   0.67905396 
 5034000   -4.4298489    1.9214661   -2.5083827   0.89472559    1.2812978    5908.9642   0.67693759 
 5035000   -4.5202567    1.9541689   -2.5660878    1.0175729     1.303105     5791.275   0.69069419 
 5036000   -4.3934113    1.9397023   -2.4537091    1.0227123    1.2934582    5914.8935     0.676259 
 5037000   -4.4137778    1.9659503   -2.4478276   0.95035833    1.3109612    5928.8332   0.67466901 
 5038000   -4.4700571    1.9384652   -2.5315919    1.0900358    1.2926333    5829.4222   0.68617436 
 5039000   -4.4811205    1.9511168   -2.5300037    1.0570837    1.3010698    5826.3556   0.68653551 
 5040000    -4.412997    1.9375445   -2.4754525   0.85461449    1.2920194    5930.1835   0.67451539 
 5041000   -4.4323112    1.9277928   -2.5045184   0.96948027    1.2855166     5886.127     0.679564 
 5042000   -4.4494784    1.9241797   -2.5252987    1.0163289    1.2831072    5860.3902   0.68254841 
 5043000   -4.4377678    2.0047205   -2.4330473    1.0162068    1.3368145    5875.0706   0.68084288 
 5044000   -4.4136713    1.9868553    -2.426816   0.91948582    1.3249014    5921.6752   0.67548454 
 5045000   -4.4724727    1.9605589   -2.5119138    1.1374511    1.3073661    5808.8669   0.68860246 
 5046000   -4.4564807    1.9735217   -2.4829589    1.0753932    1.3160102    5840.6839   0.68485131 
 5047000    -4.423716    1.9869774   -2.4367386    0.9724792    1.3249829    5897.9059   0.67820682 
 5048000   -4.4212739    1.9791627   -2.4421112    1.1627948    1.3197718    5854.7011   0.68321165 
 5049000   -4.4007145    1.9630368   -2.4376777    1.0682164    1.3090184    5923.2799   0.67530154 
 5050000     -4.46922    1.9524551   -2.5167649    1.1364735    1.3019622    5815.0571   0.68786943 
 5051000    -4.446208    1.9605669   -2.4856411    1.0568846    1.3073714    5854.0811     0.683284 
 5052000   -4.4172569    1.9526072   -2.4646497   0.96653159    1.3020637     5916.567   0.67606773 
 5053000   -4.4935948    1.9465874   -2.5470074    0.9821178    1.2980495    5829.9318   0.68611437 
 5054000     -4.41704     1.936904   -2.4801359   0.96789532    1.2915923    5904.0617    0.6774997 
 5055000    -4.393353    1.9707776   -2.4225754   0.97676009    1.3141803    5947.5471   0.67254617 
 5056000   -4.4803449    1.9618945   -2.5184503    1.0769871    1.3082568    5814.6783   0.68791424 
 5057000   -4.4742567    1.9423035   -2.5319532   0.97430795    1.2951928    5830.0537   0.68610002 
 5058000   -4.4307805    1.8997042   -2.5310763   0.88890677    1.2667861    5916.6965   0.67605293 
 5059000   -4.4433845    1.9083445   -2.5350401    1.0043321    1.2725478    5857.8289   0.68284685 
 5060000   -4.4754131    1.9123452   -2.5630679   0.90305738    1.2752156    5872.9114   0.68109319 
 5061000   -4.4582256     1.949598   -2.5086276   0.91870974     1.300057    5869.5278   0.68148583 
 5062000   -4.4007486    1.9596537   -2.4410949    1.0483766    1.3067625    5908.8035     0.676956 
 5063000     -4.43113    1.9811282   -2.4500018   0.94615102    1.3210824    5910.4669   0.67676549 
 5064000   -4.4555372    2.0053065   -2.4502307    1.0987448    1.3372053    5852.2095   0.68350253 
 5065000   -4.4295123     1.955563   -2.4739493    1.0882087    1.3040347    5873.7602   0.68099478 
 5066000   -4.4219087    1.9511195   -2.4707893   0.97769724    1.3010716    5903.6545   0.67754643 
 5067000   -4.4566671    1.9701428   -2.4865244    1.0474636     1.313757    5867.8537   0.68168025 
 5068000   -4.4324769    1.9375926   -2.4948843   0.90332965    1.2920514     5904.163   0.67748807 
 5069000   -4.5051874    1.9357517   -2.5694357    1.0006363    1.2908238    5806.1353   0.68892641 
 5070000   -4.4156816    1.9370402   -2.4786415    1.0531668     1.291683    5892.2716   0.67885533 
 5071000   -4.4048474    1.9628488   -2.4419986   0.99148668    1.3088931    5909.9713   0.67682224 
 5072000   -4.4918408    1.9057512   -2.5860896   0.98535472    1.2708185    5826.9421    0.6864664 
 5073000   -4.4768186    1.9148061   -2.5620125   0.98572684    1.2768566    5845.8512   0.68424595 
 5074000   -4.4444578    1.9553165   -2.4891412   0.95974488    1.3038703    5899.7039   0.67800013 
 5075000   -4.4491787    1.9539961   -2.4951826   0.96896929    1.3029898    5873.6642    0.6810059 
 5076000   -4.4875652    1.9573628   -2.5302025    1.0834055    1.3052348    5812.1853    0.6882093 
 5077000   -4.4243427    1.9697685   -2.4545742    0.8875743    1.3135074    5920.4942   0.67561927 
 5078000   -4.4303054    1.9459238   -2.4843817    0.9703539    1.2976069     5894.355   0.67861538 
 5079000   -4.4897994    1.9683576   -2.5214418    0.8905387    1.3125665    5845.5836   0.68427727 
 5080000   -4.4040144    1.9240004   -2.4800139    1.0317674    1.2829877    5914.8934   0.67625902 
 5081000   -4.4643631    1.9515234   -2.5128396    1.0756462     1.301341    5843.2212   0.68455392 
 5082000   -4.4411926    1.9789208   -2.4622718    1.1101295    1.3196105    5858.2374   0.68279923 
 5083000   -4.4152533    1.9663053    -2.448948   0.97380902     1.311198    5898.9826   0.67808303 
 5084000   -4.4168836    1.9763035   -2.4405801     1.051467    1.3178651    5888.2122   0.67932335 
 5085000   -4.4242623    1.9623619   -2.4619004   0.93574933    1.3085684    5906.1192   0.67726368 
 5086000   -4.4743352    1.9062729   -2.5680623   0.95300703    1.2711664    5842.7007    0.6846149 
 5087000   -4.4498014    1.9565657   -2.4932357   0.86536673    1.3047033    5898.2909   0.67816255 
 5088000   -4.4393016    1.9425894   -2.4967122    1.0056604    1.2953835    5876.0831   0.68072557 
 5089000   -4.4485463    1.9660571   -2.4824892    1.0854803    1.3110325    5843.2516   0.68455036 
 5090000   -4.4412175    1.9762209   -2.4649966    1.0271677      1.31781    5868.6435   0.68158851 
 5091000   -4.4520165    1.9899533   -2.4620632    1.0592767    1.3269673    5868.0738   0.68165469 
 5092000   -4.4385795    1.9798497   -2.4587298    1.1216232    1.3202299    5858.2512   0.68279763 
 5093000   -4.4336817    1.9385958   -2.4950859    1.1141115    1.2927204    5860.5359   0.68253144 
 5094000   -4.4569548    1.9621699   -2.4947849    1.0461112    1.3084404    5860.6544   0.68251764 
 5095000   -4.4509531    1.9628411   -2.4881119   0.91252518     1.308888     5886.111   0.67956584 
 5096000   -4.4731007    1.9921356   -2.4809651    1.0683054    1.3284225    5834.8285   0.68553857 
 5097000   -4.4455311    1.9487992   -2.4967319     1.097192    1.2995244    5856.3821   0.68301554 
 5098000    -4.464955    1.9906287   -2.4743262    1.0847109    1.3274177    5829.2734   0.68619187 
 5099000   -4.4502891    1.9559549   -2.4943343    1.0865317     1.304296    5849.3458   0.68383716 
 5100000   -4.4747471    1.9575982   -2.5171489    1.0978692    1.3053918    5816.6111   0.68768565 
Loop time of 492.214 on 2 procs for 100000 steps with 4000 atoms

Performance: 87766.776 tau/day, 203.164 timesteps/s
99.2% CPU use with 2 MPI tasks x no OpenMP threads

MPI task timing breakdown:
Section |  min time  |  avg time  |  max time  |%varavg| %total
---------------------------------------------------------------
Pair    | 404.36     | 410.54     | 416.73     |  30.5 | 83.41
Neigh   | 46.701     | 46.827     | 46.952     |   1.8 |  9.51
Comm    | 13.379     | 19.678     | 25.977     | 142.0 |  4.00
Output  | 0.2997     | 0.30041    | 0.30112    |   0.1 |  0.06
Modify  | 13.404     | 13.425     | 13.445     |   0.6 |  2.73
Other   |            | 1.44       |            |       |  0.29

Nlocal:    2000 ave 2006 max 1994 min
Histogram: 1 0 0 0 0 0 0 0 0 1
Nghost:    5489 ave 5497 max 5481 min
Histogram: 1 0 0 0 0 0 0 0 0 1
Neighs:    157014 ave 160875 max 153152 min
Histogram: 1 0 0 0 0 0 0 0 0 1

Total # of neighbors = 314027
Ave neighs/atom = 78.5067
Neighbor list builds = 5000
Dangerous builds not checked
unfix   intnpt
undump  id

#Using Nvt to calculate the rdf and msd
compute   msd all msd average yes
compute   rdfnvt all rdf 100 1 1
fix       rdfnvt all ave/time ${Nevery} ${Nrepeat} ${Nfreq} c_rdfnvt[*] file systemnvt.rdf.${temp} mode vector
fix       rdfnvt all ave/time 1000 ${Nrepeat} ${Nfreq} c_rdfnvt[*] file systemnvt.rdf.${temp} mode vector
fix       rdfnvt all ave/time 1000 100 ${Nfreq} c_rdfnvt[*] file systemnvt.rdf.${temp} mode vector
fix       rdfnvt all ave/time 1000 100 100000 c_rdfnvt[*] file systemnvt.rdf.${temp} mode vector
fix       rdfnvt all ave/time 1000 100 100000 c_rdfnvt[*] file systemnvt.rdf.1.3 mode vector
log       log.lammps.nvt.${temp}
log       log.lammps.nvt.1.3
