thermo    ${nthermo}
thermo    1000
thermo_style custom step pe ke etotal press temp vol c_msd[4]
dump      idnvt all atom 1000 out.dump.nvt.${temp}.lammpstrj
dump      idnvt all atom 1000 out.dump.nvt.1.lammpstrj
restart   100000 restartnpt1.data restartnp2.data

fix       intnvt all nvt temp ${temp} ${temp} ${tdamp}
fix       intnvt all nvt temp 1 ${temp} ${tdamp}
fix       intnvt all nvt temp 1 1 ${tdamp}
fix       intnvt all nvt temp 1 1 1
run       400000
Neighbor list info ...
  update every 20 steps, delay 0 steps, check no
  max neighbors/atom: 2000, page size: 100000
  master list distance cutoff = 3.8
  ghost atom cutoff = 3.8
  binsize = 1.9, bins = 10 10 10
  2 neighbor lists, perpetual/occasional/extra = 1 1 0
  (1) pair lj/cut, perpetual
      attributes: half, newton on
      pair build: half/bin/atomonly/newton
      stencil: half/bin/3d/newton
      bin: standard
  (2) compute rdf, occasional, copy from (1)
      attributes: half, newton on
      pair build: copy
      stencil: none
      bin: none
Per MPI rank memory allocation (min/avg/max) = 4.741 | 4.741 | 4.741 Mbytes
Step PotEng KinEng TotEng Press Temp Volume c_msd[4] 
 3600000   -5.3008613      1.46509   -3.8357713    1.0563843   0.97697089    5086.2218            0 
 3601000   -5.2884444     1.481071   -3.8073734     1.078527   0.98762756    5086.2218    0.9420957 
 3602000   -5.2764681    1.4643104   -3.8121577    1.1543443   0.97645102    5086.2218    1.7746786 
 3603000   -5.2910172    1.5280534   -3.7629638    1.1497658     1.018957    5086.2218    2.5886345 
 3604000   -5.2946367    1.5213585   -3.7732782    1.0997694    1.0144926    5086.2218    3.3419807 
 3605000   -5.2909958    1.5256809   -3.7653149    1.1295473     1.017375    5086.2218    4.0950389 
 3606000    -5.292157    1.4998875   -3.7922694    1.1526415    1.0001751    5086.2218    4.7853963 
 3607000   -5.2949135     1.485921   -3.8089925    1.0738538   0.99086168    5086.2218    5.3838457 
 3608000   -5.3191455    1.5137668   -3.8053787   0.99938395    1.0094302    5086.2218    6.1411967 
 3609000   -5.2867106    1.5027516    -3.783959    1.0990579     1.002085    5086.2218    6.8900556 
 3610000   -5.2900174    1.5301128   -3.7599046    1.1554683    1.0203303    5086.2218    7.6946255 
 3611000   -5.2774898    1.4919809   -3.7855089    1.1584837   0.99490269    5086.2218    8.3758875 
 3612000   -5.2682933    1.4824163   -3.7858769    1.1767581   0.98852467    5086.2218    9.0078127 
 3613000   -5.2759311    1.4879706   -3.7879605    1.1648253   0.99222845    5086.2218    9.7240128 
 3614000   -5.2695142    1.5053393   -3.7641749    1.1815775    1.0038105    5086.2218     10.48227 
 3615000    -5.302533    1.5005964   -3.8019366    1.0390007    1.0006477    5086.2218    11.271647 
 3616000   -5.2946339    1.4786869   -3.8159469    1.0808842   0.98603779    5086.2218    11.868017 
 3617000   -5.3100818    1.4782279   -3.8318539   0.98181932   0.98573171    5086.2218    12.706498 
 3618000   -5.3137904    1.4939442   -3.8198462    1.0143862   0.99621186    5086.2218    13.530234 
 3619000   -5.3100671    1.5047031    -3.805364   0.97459945    1.0033862    5086.2218    14.146555 
 3620000    -5.281448    1.4788391   -3.8026089    1.1515702   0.98613926    5086.2218    14.829036 
 3621000    -5.313592    1.5124126   -3.8011794   0.99382646    1.0085272    5086.2218    15.796705 
 3622000   -5.3140741    1.5191853   -3.7948887    1.0238478    1.0130435    5086.2218     16.80278 
 3623000   -5.2895926    1.4997113   -3.7898812    1.0955955    1.0000576    5086.2218    17.412296 
 3624000   -5.2820801    1.4965608   -3.7855193      1.12616   0.99795668    5086.2218    18.151339 
 3625000   -5.3139531    1.4966801   -3.8172731     1.006936   0.99803621    5086.2218    18.941333 
 3626000   -5.3254354     1.499479   -3.8259565   0.89716981   0.99990263    5086.2218    19.668009 
 3627000   -5.3001065     1.517013   -3.7830935    1.0845721    1.0115949    5086.2218     20.51357 
 3628000   -5.3074291    1.5162809   -3.7911481     1.075174    1.0111067    5086.2218    21.233154 
 3629000   -5.2946186    1.5021233   -3.7924953    1.1131195     1.001666    5086.2218    22.188981 
 3630000   -5.3004964    1.5257642   -3.7747322    1.0840573    1.0174305    5086.2218    22.920409 
 3631000   -5.2821572    1.5225613   -3.7595959    1.1515682    1.0152947    5086.2218      23.5572 
 3632000   -5.2844913    1.5324078   -3.7520834    1.1429276    1.0218607    5086.2218    24.169409 
 3633000   -5.3195496    1.5173776    -3.802172   0.97865195     1.011838    5086.2218    24.965978 
 3634000    -5.315676    1.5014677   -3.8142083   0.96346236    1.0012288    5086.2218    25.787237 
 3635000   -5.3090233    1.4992361   -3.8097872   0.99983904   0.99974067    5086.2218    26.415415 
 3636000    -5.283423    1.4849067   -3.7985163    1.1302244   0.99018532    5086.2218    27.256669 
 3637000   -5.2931102    1.5097405   -3.7833697    1.0888677    1.0067454    5086.2218    28.070621 
 3638000    -5.277641    1.5180139   -3.7596271    1.1416835    1.0122623    5086.2218    28.676616 
 3639000   -5.2598197    1.5060194   -3.7538003     1.245656     1.004264    5086.2218    29.663645 
 3640000   -5.2739506    1.5041985   -3.7697521    1.1552024    1.0030498    5086.2218    30.419451 
 3641000   -5.2888713    1.5123779   -3.7764934    1.1223373     1.008504    5086.2218    31.042713 
 3642000     -5.28338    1.5357184   -3.7476617    1.1696294    1.0240683    5086.2218    31.830284 
 3643000   -5.2885377    1.4986953   -3.7898424    1.0623925   0.99938006    5086.2218    32.404292 
 3644000   -5.3045986    1.5138809   -3.7907177    1.0325917    1.0095063    5086.2218    33.271799 
 3645000   -5.3012999    1.5125723   -3.7887276     1.090126    1.0086337    5086.2218    33.733195 
 3646000   -5.2982126    1.5042611   -3.7939515    1.0622283    1.0030915    5086.2218    34.518441 
 3647000   -5.2994992     1.508787   -3.7907122    1.0377698    1.0061095    5086.2218    35.158874 
 3648000   -5.3308753    1.5140709   -3.8168044   0.90225436     1.009633    5086.2218    35.810863 
 3649000   -5.3015163    1.4673996   -3.8341166    1.0514717   0.97851105    5086.2218    36.485621 
 3650000   -5.3021814      1.49433   -3.8078514     1.063816   0.99646913    5086.2218     37.20344 
 3651000   -5.3203363    1.5218858   -3.7984505    1.0039568    1.0148443    5086.2218    38.106444 
 3652000   -5.2982148    1.5153849   -3.7828299    1.0393604    1.0105092    5086.2218    38.745041 
 3653000   -5.2819717    1.5101178   -3.7718539    1.1441452     1.006997    5086.2218    39.211461 
 3654000   -5.2928988    1.5343934   -3.7585054    1.0714149    1.0231847    5086.2218      40.1935 
 3655000   -5.2925057    1.5406083   -3.7518974    1.1111613     1.027329    5086.2218    41.068708 
 3656000   -5.3075432    1.4945935   -3.8129497   0.98423991   0.99664483    5086.2218    41.767305 
 3657000   -5.2860068    1.4836774   -3.8023294    1.1000571   0.98936558    5086.2218    42.292864 
 3658000    -5.303963    1.4865825   -3.8173805   0.99385395   0.99130284    5086.2218    43.337296 
 3659000   -5.3139025    1.4732202   -3.8406824   0.98132548   0.98239237    5086.2218    44.015681 
 3660000   -5.3013821    1.4888934   -3.8124887    1.0430249    0.9928438    5086.2218    44.623661 
 3661000    -5.292072    1.5085247   -3.7835473    1.0922683    1.0059346    5086.2218    45.394446 
 3662000   -5.2901282    1.5146898   -3.7754385    1.1357154    1.0100457    5086.2218    45.932828 
 3663000   -5.2818525    1.5219343   -3.7599183     1.174027    1.0148766    5086.2218    46.317469 
 3664000    -5.291923     1.503378   -3.7885451    1.0982319    1.0025026    5086.2218    46.764171 
 3665000   -5.3013337    1.4925665   -3.8087672     1.054265   0.99529314    5086.2218    47.445399 
 3666000   -5.2941945    1.4793353   -3.8148591    1.0571764   0.98647017    5086.2218    48.112278 
 3667000   -5.2959617    1.4661227    -3.829839    1.0531178   0.97765954    5086.2218    48.914626 
 3668000   -5.3161657    1.4632017    -3.852964   0.94984912   0.97571173    5086.2218    49.795325 
 3669000   -5.3056949    1.4663979   -3.8392969     1.004842   0.97784308    5086.2218    50.465177 
 3670000   -5.2982486    1.4763418   -3.8219068    1.0547665   0.98447397    5086.2218    51.880581 
 3671000   -5.2985122    1.4829129   -3.8155994    1.0814524   0.98885579    5086.2218    52.769874 
 3672000    -5.289623     1.497095    -3.792528    1.0944914    0.9983129    5086.2218    53.323703 
 3673000   -5.2951753    1.5030136   -3.7921617    1.1008037    1.0022596    5086.2218     54.00558 
 3674000   -5.2889959    1.4945509    -3.794445    1.1369334   0.99661645    5086.2218    55.134332 
 3675000    -5.315719    1.4868256   -3.8288934   0.94461657   0.99146494    5086.2218     55.76249 
 3676000   -5.2945898    1.4506805   -3.8439094     1.046167   0.96736215    5086.2218    56.342103 
 3677000   -5.3120087    1.4892629   -3.8227458    1.0172089   0.99309022    5086.2218    56.852723 
 3678000   -5.3173012    1.5001687   -3.8171324   0.96169838    1.0003626    5086.2218    57.718418 
 3679000   -5.2976494    1.4930835    -3.804566    1.0927757   0.99563789    5086.2218     58.41074 
 3680000   -5.2971912    1.4920931    -3.805098    1.0797429    0.9949775    5086.2218     58.99895 
 3681000   -5.2855288    1.4871808   -3.7983481    1.1203193   0.99170178    5086.2218    60.005536 
 3682000   -5.3122385    1.5248755    -3.787363    1.0327097    1.0168379    5086.2218    60.889091 
 3683000   -5.2979205    1.5363138   -3.7616067    1.0615579    1.0244653    5086.2218    62.014804 
 3684000   -5.2863739     1.498802   -3.7875719    1.1237798   0.99945122    5086.2218    62.804775 
 3685000   -5.2931068    1.4833828   -3.8097241    1.1158703   0.98916914    5086.2218    63.321424 
 3686000   -5.2829915    1.4787493   -3.8042422    1.1284041   0.98607938    5086.2218     63.81018 
 3687000   -5.2895846     1.490403   -3.7991816     1.081654   0.99385047    5086.2218    64.668681 
 3688000   -5.3138118    1.5012896   -3.8125222   0.94963606      1.00111    5086.2218    65.050308 
 3689000   -5.3057179    1.4827443   -3.8229735    1.0499677    0.9887434    5086.2218    65.526872 
 3690000   -5.2979745    1.4823972   -3.8155773    1.0508451   0.98851194    5086.2218     66.14183 
 3691000   -5.3087508    1.5008886   -3.8078621   0.99958935    1.0008426    5086.2218    67.279453 
 3692000    -5.290869    1.5030594   -3.7878096    1.0934295    1.0022902    5086.2218    67.779917 
 3693000   -5.2755192    1.5307544   -3.7447648    1.2463878    1.0207581    5086.2218    68.648108 
 3694000   -5.2908834    1.5171528   -3.7737305    1.0923272    1.0116882    5086.2218    69.324533 
 3695000   -5.3013341    1.5277093   -3.7736248    1.0926947    1.0187276    5086.2218     70.23821 
 3696000   -5.2989292    1.4928172    -3.806112    1.0584295   0.99546034    5086.2218     71.24574 
 3697000   -5.3086863    1.4899045   -3.8187818    1.0220442   0.99351802    5086.2218    72.373841 
 3698000   -5.3288158    1.4932858     -3.83553   0.96231883   0.99577282    5086.2218    73.228256 
 3699000   -5.2993514    1.4439191   -3.8554323    1.0794914   0.96285344    5086.2218    74.229518 
 3700000   -5.2845569    1.4810985   -3.8034584    1.1518167   0.98764589    5086.2218     74.81036 
 3701000   -5.2895991    1.5240932   -3.7655059    1.1204305    1.0163162    5086.2218    75.530874 
 3702000   -5.3159021    1.5410483   -3.7748538    1.0291563    1.0276224    5086.2218    75.977291 
 3703000   -5.3061096    1.4916386    -3.814471    1.0438705   0.99467441    5086.2218    76.274268 
 3704000   -5.2890514    1.4544899   -3.8345614    1.0785919   0.96990243    5086.2218    77.309873 
 3705000   -5.3045477    1.5023926   -3.8021551    1.0283084    1.0018455    5086.2218    78.110801 
 3706000   -5.2951815    1.5041766   -3.7910049    1.0900106    1.0030351    5086.2218    78.845049 
 3707000   -5.2904472    1.4976703   -3.7927768    1.0884744   0.99869657    5086.2218    79.520385 
 3708000   -5.3053961    1.5404894   -3.7649066    1.0300322    1.0272498    5086.2218    80.136816 
 3709000    -5.294241    1.4777865   -3.8164545    1.0981975   0.98543737    5086.2218    81.085849 
 3710000   -5.3183807    1.5055492   -3.8128315   0.99967283    1.0039505    5086.2218    81.621835 
 3711000   -5.2842642    1.4798543   -3.8044099    1.0999169   0.98681626    5086.2218    82.489266 
 3712000   -5.3078361    1.5038622   -3.8039739   0.99857125    1.0028255    5086.2218    83.161273 
 3713000   -5.3168255     1.521182   -3.7956435    1.0042461    1.0143749    5086.2218    84.168363 
 3714000    -5.257539    1.5065716   -3.7509674    1.2178987    1.0046322    5086.2218    85.249082 
 3715000   -5.3182093     1.529709   -3.7885003    1.0289184     1.020061    5086.2218    85.795019 
 3716000   -5.3041479    1.5021139   -3.8020341    1.0614025    1.0016597    5086.2218    86.639163 
 3717000   -5.2879706    1.5019518   -3.7860188    1.1329796    1.0015516    5086.2218     87.49579 
 3718000   -5.3084507    1.5313742   -3.7770766   0.98465228    1.0211714    5086.2218     88.53862 
 3719000   -5.3005532    1.5352012    -3.765352    1.0794351    1.0237234    5086.2218    89.372324 
 3720000   -5.2941411    1.5223452   -3.7717958    1.1089415    1.0151506    5086.2218    89.592848 
 3721000   -5.2936811    1.4899751    -3.803706    1.1191607   0.99356513    5086.2218    90.109528 
 3722000    -5.290757    1.5007026   -3.7900543    1.0877559    1.0007186    5086.2218     90.78246 
 3723000   -5.2880957    1.4986571   -3.7894386    1.1123444   0.99935456    5086.2218    91.967908 
 3724000   -5.3055464    1.5311993    -3.774347    1.0929065    1.0210548    5086.2218    92.790887 
 3725000   -5.3119485    1.5177801   -3.7941684    1.0200985    1.0121064    5086.2218    93.242668 
 3726000   -5.3002486    1.4914687   -3.8087799    1.0659915   0.99456112    5086.2218    93.929493 
 3727000   -5.3230851    1.4979935   -3.8250916   0.97959323   0.99891204    5086.2218    94.646263 
 3728000    -5.321467    1.4552506   -3.8662164   0.95339633   0.97040969    5086.2218    95.452426 
 3729000   -5.2990155     1.508538   -3.7904775    1.0793122    1.0059435    5086.2218    96.011037 
 3730000   -5.2778496    1.4858701   -3.7919795      1.17787   0.99082778    5086.2218    96.033587 
 3731000   -5.2840461    1.5125844   -3.7714617    1.1413794    1.0086418    5086.2218    96.817565 
 3732000   -5.3095598    1.5080319   -3.8015279    1.0124893     1.005606    5086.2218    97.959518 
 3733000   -5.2966474    1.4982501   -3.7983972     1.022555    0.9990832    5086.2218    98.330182 
 3734000   -5.2738708    1.4747949   -3.7990758    1.1508238   0.98344248    5086.2218    99.350529 
 3735000   -5.3042375    1.5157734   -3.7884641   0.98531752    1.0107683    5086.2218    99.688119 
 3736000   -5.2970328    1.5156596   -3.7813733    1.0837268    1.0106924    5086.2218    100.62866 
 3737000   -5.2730081    1.5526743   -3.7203338     1.181837    1.0353751    5086.2218     101.5397 
 3738000   -5.2695183    1.4896493    -3.779869    1.1989847   0.99334787    5086.2218    102.39015 
 3739000   -5.2818659    1.5031846   -3.7786814    1.1193113    1.0023736    5086.2218    102.96815 
 3740000   -5.2996817    1.4559046   -3.8437771    1.0287272   0.97084578    5086.2218    103.58457 
 3741000   -5.3131401    1.4622928   -3.8508473   0.95436618   0.97510565    5086.2218    104.14558 
 3742000   -5.2972339       1.4808   -3.8164338    1.0620287   0.98744687    5086.2218    104.83165 
 3743000   -5.2937042    1.4891074   -3.8045968    1.0878534   0.99298652    5086.2218    105.63113 
 3744000   -5.3086883     1.507182   -3.8015063     1.017373    1.0050393    5086.2218    106.00797 
 3745000   -5.3027652    1.4794072    -3.823358    1.0492909   0.98651807    5086.2218    107.05729 
 3746000   -5.2931477    1.4996987    -3.793449    1.0705658    1.0000492    5086.2218    108.08453 
 3747000   -5.2938219    1.5239014   -3.7699204    1.0755709    1.0161883    5086.2218    108.55366 
 3748000    -5.275712    1.5217414   -3.7539706    1.2090193     1.014748    5086.2218    109.75956 
 3749000   -5.3285375    1.5301572   -3.7983803   0.95338826    1.0203599    5086.2218    110.51727 
 3750000   -5.3247093    1.5044852   -3.8202242   0.93667026    1.0032409    5086.2218    110.93773 
 3751000   -5.3047509    1.4600373   -3.8447137    1.0191441   0.97360157    5086.2218    111.73457 
 3752000   -5.3127554    1.4784969   -3.8342585    1.0251976   0.98591109    5086.2218    112.36227 
 3753000    -5.295908    1.5015044   -3.7944036    1.1022364    1.0012533    5086.2218    113.40813 
 3754000   -5.2611095    1.4856697   -3.7754398    1.2375908   0.99069414    5086.2218    114.12415 
 3755000   -5.2816293    1.5143308   -3.7672985    1.1610013    1.0098063    5086.2218    114.36939 
 3756000   -5.2761511    1.5010974   -3.7750537    1.1804388    1.0009819    5086.2218    115.04678 
 3757000   -5.2961908     1.516461   -3.7797298    1.0989784    1.0112268    5086.2218     115.4441 
 3758000   -5.3201095    1.5240043   -3.7961052   0.96471988    1.0162569    5086.2218    116.10379 
 3759000   -5.3194924    1.4989621   -3.8205303   0.96730043   0.99955796    5086.2218    116.68789 
 3760000   -5.2888816    1.4630403   -3.8258413    1.0746874   0.97560411    5086.2218     117.4829 
 3761000   -5.3148605    1.4691268   -3.8457338    1.0308298   0.97966276    5086.2218    119.01186 
 3762000   -5.2998039      1.47675   -3.8230539    1.0406069   0.98474621    5086.2218     120.0675 
 3763000   -5.3023617    1.4790535   -3.8233082    1.0250711   0.98628223    5086.2218    121.07275 
 3764000    -5.316634    1.4869719   -3.8296621    1.0137634   0.99156247    5086.2218    121.95498 
 3765000   -5.3152358    1.5069197   -3.8083162   0.98484956    1.0048643    5086.2218    122.86667 
 3766000   -5.3150267    1.5006086   -3.8144181   0.95277885    1.0006559    5086.2218    123.79938 
 3767000   -5.2938082    1.5180353   -3.7757729    1.1049342    1.0122766    5086.2218     124.9343 
 3768000   -5.2802288    1.5009452   -3.7792836    1.1647461    1.0008804    5086.2218    125.84321 
 3769000   -5.2977848    1.5052593   -3.7925255    1.0777738    1.0037571    5086.2218    126.71906 
 3770000   -5.2705027    1.4693167    -3.801186     1.202169   0.97978939    5086.2218    127.75899 
 3771000   -5.3025299    1.4835884   -3.8189415    1.0653243   0.98930623    5086.2218    128.64519 
 3772000   -5.3031471    1.4727669   -3.8303802    1.0611242   0.98209011    5086.2218    129.51018 
 3773000   -5.3175239     1.492009   -3.8255149   0.95649687   0.99492139    5086.2218    130.58077 
 3774000   -5.3080508    1.4858176   -3.8222332    1.0107943   0.99079273    5086.2218    131.46651 
 3775000   -5.3127859    1.5117126   -3.8010733    1.0566975    1.0080604    5086.2218    132.66127 
 3776000   -5.3014919    1.5247467   -3.7767452    1.0413225     1.016752    5086.2218    133.33654 
 3777000   -5.3088884    1.5131965   -3.7956919    1.0443198    1.0090499    5086.2218    133.96802 
 3778000   -5.2900596    1.4974276    -3.792632    1.0771638   0.99853469    5086.2218    134.91088 
 3779000   -5.2777544     1.504491   -3.7732634    1.1676711    1.0032448    5086.2218    135.31871 
 3780000   -5.3074289    1.5320507   -3.7753782    1.0660071    1.0216225    5086.2218    136.53178 
 3781000    -5.303515     1.506708    -3.796807    1.0702243    1.0047232    5086.2218    137.14177 
 3782000   -5.2820544    1.4660327   -3.8160217    1.0814361   0.97759954    5086.2218    138.26669 
 3783000   -5.3125374    1.4818831   -3.8306543   0.99471551   0.98816911    5086.2218    139.33419 
 3784000   -5.3040993    1.4758968   -3.8282025    1.0167206   0.98417725    5086.2218    140.06099 
 3785000   -5.2874542    1.4979563   -3.7894979    1.1000848   0.99888725    5086.2218    141.16692 
 3786000   -5.2799524    1.5016801   -3.7782723    1.1991058    1.0013704    5086.2218    142.10534 
 3787000   -5.3102732    1.5166009   -3.7936722   0.99615511    1.0113201    5086.2218    142.83565 
 3788000   -5.2817867    1.5098108   -3.7719759    1.1601655    1.0067922    5086.2218    143.09772 
 3789000   -5.2928127    1.5145947    -3.778218    1.0846734    1.0099823    5086.2218    144.18672 
 3790000   -5.3039807    1.5048539   -3.7991268   0.98625353    1.0034868    5086.2218    144.63439 
 3791000    -5.295346     1.491099    -3.804247    1.0818146   0.99431459    5086.2218    145.44653 
 3792000   -5.3201286    1.4794265   -3.8407021   0.95883939   0.98653093    5086.2218    146.07383 
 3793000   -5.3168607    1.4882226   -3.8286381   0.97829502   0.99239651    5086.2218    146.84833 
 3794000   -5.3196205    1.5041887   -3.8154318   0.96083729    1.0030432    5086.2218    147.89439 
 3795000    -5.302927     1.497176    -3.805751    1.0767533   0.99836693    5086.2218      148.008 
 3796000    -5.300783    1.4939917   -3.8067913    1.0649312   0.99624354    5086.2218    149.34614 
 3797000   -5.2976131    1.5017055   -3.7959077    1.0724708    1.0013873    5086.2218    149.66621 
 3798000    -5.292196    1.4911775   -3.8010184    1.0925538   0.99436694    5086.2218    150.77487 
 3799000     -5.28537    1.5116654   -3.7737045    1.1145123     1.008029    5086.2218    151.54499 
 3800000   -5.2825781    1.5086541    -3.773924     1.134267    1.0060209    5086.2218     151.7619 
 3801000   -5.2776712    1.5125931   -3.7650782    1.1585644    1.0086476    5086.2218     152.3635 
 3802000   -5.2907881    1.5426165   -3.7481716    1.1088345    1.0286681    5086.2218    153.51437 
 3803000   -5.2922022     1.544111   -3.7480911    1.1308015    1.0296648    5086.2218    153.73432 
 3804000   -5.3067883    1.5259907   -3.7807976    1.0299867    1.0175815    5086.2218    154.46237 
 3805000   -5.2846322    1.4942748   -3.7903574    1.1449861   0.99643231    5086.2218    156.05989 
 3806000   -5.2899066    1.5150361   -3.7748705    1.0985637    1.0102767    5086.2218    157.09166 
 3807000   -5.3056281    1.5102467   -3.7953813    1.0415302    1.0070829    5086.2218    158.07671 
 3808000    -5.310477     1.482457     -3.82802   0.97158362   0.98855181    5086.2218    159.50827 
 3809000    -5.296546    1.4575954   -3.8389506    1.0518979   0.97197324    5086.2218    159.58281 
 3810000   -5.2811923    1.4660649   -3.8151274    1.1663471   0.97762098    5086.2218    160.55073 
 3811000   -5.2952044    1.4720266   -3.8231778    1.0742565   0.98159649    5086.2218     161.6919 
 3812000    -5.315678    1.4850938   -3.8305841   0.96137881   0.99031013    5086.2218    162.11552 
 3813000   -5.3135308    1.4713254   -3.8422054   0.95546168   0.98112887    5086.2218    162.79926 
 3814000   -5.2843322    1.4758196   -3.8085125    1.1336691   0.98412578    5086.2218    163.84719 
 3815000   -5.3221242    1.5048798   -3.8172444   0.91946096    1.0035041    5086.2218    165.12247 
 3816000   -5.2912447    1.5271958   -3.7640488    1.1322407    1.0183852    5086.2218    166.13433 
 3817000   -5.3118904     1.511801   -3.8000894    1.0097659    1.0081193    5086.2218    167.53852 
 3818000   -5.2911595    1.4985108   -3.7926487       1.1408   0.99925699    5086.2218    168.74967 
 3819000   -5.3054276    1.5081589   -3.7972687    1.0569361    1.0056907    5086.2218    169.19593 
 3820000   -5.3106636    1.5078151   -3.8028485    1.0724977    1.0054614    5086.2218    169.87919 
 3821000   -5.2975973     1.478137   -3.8194603    1.0225115    0.9856711    5086.2218    170.69715 
 3822000   -5.3076758    1.4982751   -3.8094007    1.0468511   0.99909985    5086.2218     171.1531 
 3823000   -5.2642284    1.4708819   -3.7933464    1.2134841   0.98083316    5086.2218    172.10168 
 3824000    -5.317982    1.5200744   -3.7979076   0.97605906    1.0136363    5086.2218    173.29879 
 3825000   -5.2733039    1.5109181   -3.7623858    1.1964642    1.0075306    5086.2218    174.05116 
 3826000   -5.2834189     1.490456    -3.792963    1.1560056   0.99388577    5086.2218    175.05501 
 3827000   -5.2939567    1.4835055   -3.8104512    1.0571967   0.98925096    5086.2218    176.13443 
 3828000   -5.3207279     1.498077   -3.8226509   0.99976281   0.99896772    5086.2218    176.45368 
 3829000   -5.3248541     1.526264   -3.7985901      0.95804    1.0177638    5086.2218    176.83784 
 3830000   -5.2820411    1.5093063   -3.7727348    1.1297071    1.0064558    5086.2218    177.65437 
 3831000   -5.2730141    1.5105107   -3.7625034    1.1852441     1.007259    5086.2218    178.46883 
 3832000   -5.2972243     1.509976   -3.7872483    1.0642519    1.0069024    5086.2218    179.32397 
 3833000   -5.3172311    1.4713217   -3.8459094   0.92668607    0.9811264    5086.2218    179.96422 
 3834000   -5.3072686    1.4664073   -3.8408613     1.026717   0.97784932    5086.2218    181.20388 
 3835000   -5.3081228    1.4876921   -3.8204306    0.9849984   0.99204276    5086.2218    182.22832 
 3836000   -5.3132277    1.5038345   -3.8093931    1.0505735    1.0028071    5086.2218    182.83626 
 3837000   -5.2690736    1.4792395   -3.7898341    1.1742288   0.98640624    5086.2218     182.8458 
 3838000   -5.2761452     1.496528   -3.7796173    1.1581936   0.99793479    5086.2218     183.3722 
 3839000   -5.2808443    1.5438996   -3.7369448     1.172346    1.0295238    5086.2218    184.38264 
 3840000   -5.2906382    1.5243319   -3.7663063    1.1430881    1.0164754    5086.2218    185.99438 
 3841000   -5.2769488    1.5020893   -3.7748595    1.1599922    1.0016433    5086.2218    187.18254 
 3842000   -5.2912619    1.4979482   -3.7933137    1.1059864   0.99888184    5086.2218    187.74086 
 3843000   -5.3225032    1.5166619   -3.8058413   0.95246039    1.0113608    5086.2218    188.86901 
 3844000   -5.2983952    1.4805007   -3.8178945    1.0782802   0.98724726    5086.2218    189.83085 
 3845000   -5.3005538    1.4765511   -3.8240027     1.026833   0.98461355    5086.2218    190.37383 
 3846000   -5.2812482    1.4829478   -3.7983004    1.1499002   0.98887908    5086.2218    191.27269 
 3847000   -5.2982319    1.4691935   -3.8290385    1.0676209   0.97970723    5086.2218    191.68092 
 3848000   -5.3237496    1.4736731   -3.8500765   0.93280638   0.98269443    5086.2218    191.90471 
 3849000   -5.3171623    1.4945931   -3.8225692   0.98449221   0.99664458    5086.2218    192.56267 
 3850000   -5.2969371    1.4844469   -3.8124902    1.0600148   0.98987877    5086.2218    192.22336 
 3851000   -5.3033089    1.5213662   -3.7819427    1.0815793    1.0144977    5086.2218    193.14787 
 3852000   -5.2978987    1.5255652   -3.7723336    1.0633132    1.0172978    5086.2218     193.9423 
 3853000   -5.2845626    1.5150269   -3.7695357    1.1146498    1.0102705    5086.2218    194.08816 
 3854000   -5.2904661    1.5215473   -3.7689188    1.1300786    1.0146185    5086.2218    194.51997 
 3855000   -5.2676094    1.4811249   -3.7864845    1.1725989    0.9876635    5086.2218    196.10651 
 3856000   -5.3118282    1.5037638   -3.8080644     1.012771    1.0027599    5086.2218    197.27875 
 3857000   -5.3117253    1.4895201   -3.8222053   0.98549734   0.99326168    5086.2218    197.40553 
 3858000   -5.3023079    1.4673048   -3.8350031   0.99799911    0.9784478    5086.2218    198.69048 
 3859000   -5.3232773    1.4982892   -3.8249881   0.99269525   0.99910924    5086.2218    198.72796 
 3860000   -5.2781542    1.4709324   -3.8072218    1.1632317   0.98086684    5086.2218    199.01787 
 3861000   -5.3095182    1.5079157   -3.8016026    1.0498149    1.0055285    5086.2218    199.09312 
 3862000   -5.2842873    1.4794823    -3.804805    1.1343301   0.98656815    5086.2218     199.7987 
 3863000   -5.3140382    1.4946106   -3.8194276   0.98710375   0.99665621    5086.2218    200.81043 
 3864000   -5.3121649     1.476649   -3.8355159   0.98949292   0.98467883    5086.2218     201.6258 
 3865000   -5.3339671    1.4754601   -3.8585071   0.88558368   0.98388602    5086.2218    202.12322 
 3866000   -5.2963822    1.5176698   -3.7787124    1.0401131    1.0120329    5086.2218    201.93818 
 3867000   -5.3052092    1.5264524   -3.7787568   0.99610093    1.0178894    5086.2218    202.38672 
 3868000    -5.285862    1.5185863   -3.7672757    1.1682464     1.012644    5086.2218    203.10781 
 3869000   -5.2894431    1.4922632   -3.7971799    1.1229612   0.99509089    5086.2218    203.32204 
 3870000   -5.2811125    1.5029852   -3.7781273    1.1709066    1.0022407    5086.2218    204.21494 
 3871000   -5.3015322    1.5132021   -3.7883301    1.0660991    1.0090537    5086.2218     205.1375 
 3872000   -5.2937851    1.5122873   -3.7814978    1.0710722    1.0084436    5086.2218    205.93994 
 3873000   -5.3048018    1.5263135   -3.7784883    1.0377821    1.0177968    5086.2218    206.52726 
 3874000     -5.28763    1.5265601   -3.7610699    1.1134205    1.0179612    5086.2218    207.55809 
 3875000   -5.2906394    1.4998779   -3.7907616    1.0979225    1.0001686    5086.2218    209.24587 
 3876000   -5.2903531     1.499987   -3.7903661    1.1114321    1.0002414    5086.2218    209.78914 
 3877000   -5.2941681    1.5256818   -3.7684862    1.1040583    1.0173756    5086.2218    210.40072 
 3878000   -5.2953717    1.4837499   -3.8116218    1.0503457   0.98941399    5086.2218    211.45335 
 3879000   -5.3116617    1.5019129   -3.8097488    1.0035036    1.0015257    5086.2218    212.08011 
 3880000   -5.3102519    1.4764398   -3.8338121   0.97788465   0.98453936    5086.2218    212.76993 
 3881000    -5.306024     1.494403    -3.811621   0.99638696   0.99651781    5086.2218    212.48081 
 3882000   -5.3054363    1.4947811   -3.8106551     1.034661   0.99676995    5086.2218    213.30114 
 3883000   -5.2816847    1.4840794   -3.7976052    1.1315082    0.9896337    5086.2218    213.97186 
 3884000   -5.2900459    1.5272073   -3.7628385     1.075264    1.0183928    5086.2218    215.27908 
 3885000   -5.3012451    1.5243678   -3.7768773    1.1225976    1.0164993    5086.2218    217.03424 
 3886000   -5.2840033    1.4985577   -3.7854456    1.1337686   0.99928827    5086.2218     217.8498 
 3887000   -5.2994331    1.5195969   -3.7798362    1.0822956    1.0133179    5086.2218    218.80735 
 3888000   -5.2927295    1.5164515   -3.7762781    1.0995869    1.0112205    5086.2218    219.10615 
 3889000   -5.2925495    1.4920721   -3.8004774    1.1202131   0.99496345    5086.2218    219.77051 
 3890000   -5.2952916    1.4859238   -3.8093677    1.0658272   0.99086361    5086.2218    220.50574 
 3891000   -5.2916593    1.4802548   -3.8114045    1.0999695   0.98708329    5086.2218     220.6855 
 3892000    -5.305739    1.4856204   -3.8201187   0.98752982   0.99066124    5086.2218     220.9001 
 3893000   -5.3171001    1.5101454   -3.8069547   0.99634542    1.0070153    5086.2218    221.52888 
 3894000   -5.3133533    1.5093663    -3.803987     1.016901    1.0064958    5086.2218    222.70739 
 3895000   -5.2909741    1.4870336   -3.8039405    1.0863239   0.99160366    5086.2218    223.19966 
 3896000   -5.3247497      1.52086   -3.8038897   0.96332488    1.0141602    5086.2218    224.23069 
 3897000   -5.2951132    1.4990256   -3.7960876    1.0776704   0.99960028    5086.2218    224.75953 
 3898000   -5.3149079    1.5293242   -3.7855837      1.02719    1.0198044    5086.2218    225.92809 
 3899000   -5.3006695    1.5196472   -3.7810223    1.1098329    1.0133514    5086.2218    227.20947 
 3900000    -5.303899    1.4950045   -3.8088945    1.0673693   0.99691892    5086.2218    227.67186 
 3901000    -5.314138    1.4841407   -3.8299973    1.0059082   0.98967452    5086.2218    228.52047 
 3902000   -5.2862582    1.4580998   -3.8281583    1.1178357   0.97230963    5086.2218    229.32224 
 3903000    -5.270199    1.4703579   -3.7998411     1.173567   0.98048373    5086.2218    229.53946 
 3904000   -5.2866556    1.5171698   -3.7694858    1.1696657    1.0116995    5086.2218    230.16926 
 3905000   -5.2911227    1.5275857   -3.7635371    1.1494619    1.0186451    5086.2218    231.15981 
 3906000   -5.2972997    1.5167348   -3.7805649    1.0897685    1.0114094    5086.2218    231.59803 
 3907000   -5.3102277    1.4737671   -3.8364606    1.0596414   0.98275712    5086.2218    232.03965 
 3908000   -5.3089872    1.4737318   -3.8352554    1.0253157   0.98273355    5086.2218     232.3567 
 3909000   -5.3094019    1.4853161   -3.8240858    1.0106886   0.99045837    5086.2218      232.672 
 3910000   -5.2916215    1.4749526   -3.8166689    1.0707593   0.98354761    5086.2218     233.4795 
 3911000   -5.3108704    1.5072444    -3.803626    1.0444607    1.0050809    5086.2218    233.45807 
 3912000   -5.2766197    1.4855405   -3.7910792    1.1581812   0.99060796    5086.2218    234.22732 
 3913000   -5.2950211    1.4779098   -3.8171113       1.0444   0.98551957    5086.2218    235.41514 
 3914000   -5.3207041     1.470985    -3.849719   0.94324184    0.9809019    5086.2218    236.47585 
 3915000   -5.2815132    1.4706298   -3.8108834    1.0908166   0.98066505    5086.2218    236.32217 
 3916000   -5.3395301    1.5003736   -3.8391565   0.88347161    1.0004992    5086.2218    236.71967 
 3917000   -5.3381963    1.5161481   -3.8220483   0.89009271    1.0110181    5086.2218    238.08077 
 3918000   -5.3009418    1.4879902   -3.8129515    1.0499277   0.99224155    5086.2218    238.93487 
 3919000   -5.3189169    1.5115511   -3.8073659    0.9847132    1.0079527    5086.2218    239.57235 
 3920000   -5.3032272    1.5162538   -3.7869734    1.0630462    1.0110886    5086.2218    240.16641 
 3921000   -5.2851874    1.5050997   -3.7800877    1.1347319    1.0036507    5086.2218    241.46954 
 3922000   -5.2937096    1.5256997     -3.76801     1.119954    1.0173875    5086.2218    242.55178 
 3923000   -5.2801491    1.5169546   -3.7631945    1.1710071     1.011556    5086.2218    243.76338 
 3924000   -5.2929462     1.517104   -3.7758422    1.1123673    1.0116556    5086.2218    244.77376 
 3925000    -5.276776    1.4886821   -3.7880938    1.1310519   0.99270293    5086.2218     246.2831 
 3926000   -5.3040239    1.4853695   -3.8186544    1.0502387   0.99049395    5086.2218    247.19352 
 3927000   -5.3374342    1.4803345   -3.8570997   0.92659859   0.98713646    5086.2218    248.65824 
 3928000   -5.3239186    1.4891548   -3.8347638   0.93262351   0.99301813    5086.2218    248.84087 
 3929000   -5.2940598    1.4803733   -3.8136865    1.0694637   0.98716233    5086.2218    249.09942 
 3930000   -5.3018018    1.5154026   -3.7863992    1.0676338     1.010521    5086.2218     250.1051 
 3931000   -5.3022293    1.5113215   -3.7909078    1.1023228    1.0077996    5086.2218    250.72277 
 3932000   -5.3056072    1.5232368   -3.7823704    1.0568808    1.0157452    5086.2218     251.2644 
 3933000   -5.2957725    1.5147925     -3.78098    1.0825774    1.0101142    5086.2218    251.68292 
 3934000    -5.296774    1.5056979   -3.7910761    1.0617683    1.0040496    5086.2218     253.0372 
 3935000   -5.3066921    1.5272423   -3.7794498    1.0426032    1.0184161    5086.2218    254.04502 
 3936000   -5.3138158     1.518365   -3.7954508    1.0109875    1.0124965    5086.2218    253.84257 
 3937000    -5.306189    1.4969273   -3.8092617    1.0409275    0.9982011    5086.2218    254.30533 
 3938000    -5.299416    1.4842628   -3.8151532    1.1067227   0.98975595    5086.2218    255.20618 
 3939000   -5.3033116    1.4713284   -3.8319832   0.98750478   0.98113088    5086.2218    255.35787 
 3940000    -5.317213    1.5046898   -3.8125232   0.95928498    1.0033774    5086.2218    255.59089 
 3941000    -5.302124    1.5012125   -3.8009114    1.0468672    1.0010586    5086.2218     256.3378 
 3942000   -5.2946816    1.5078087    -3.786873    1.1343044    1.0054571    5086.2218    256.70936 
 3943000   -5.2658534    1.5124208   -3.7534326    1.2300063    1.0085326    5086.2218    257.29063 
 3944000   -5.2617795    1.5120805   -3.7496989    1.2141887    1.0083058    5086.2218     258.1288 
 3945000   -5.3036691    1.4914019   -3.8122672    1.0655959   0.99451656    5086.2218    258.72231 
 3946000   -5.3064997    1.4952443   -3.8112555    1.0526995   0.99707877    5086.2218    259.35734 
 3947000   -5.3221899    1.4893374   -3.8328526   0.94997027   0.99313986    5086.2218    260.11748 
 3948000   -5.3356352    1.5335605   -3.8020747   0.92351937    1.0226293    5086.2218     261.0102 
 3949000   -5.3006468     1.511872   -3.7887748    1.0498163    1.0081667    5086.2218    261.32016 
 3950000   -5.3130886    1.5233617   -3.7897269    1.0329388    1.0158284    5086.2218    261.84173 
 3951000   -5.3033998    1.5146178    -3.788782    1.0074047    1.0099977    5086.2218    261.90112 
 3952000   -5.2703262     1.489547   -3.7807792    1.1577048   0.99327967    5086.2218    262.63644 
 3953000   -5.2944693    1.4948746   -3.7995947    1.0714807   0.99683228    5086.2218    262.97231 
 3954000   -5.3232859    1.4761037   -3.8471822    0.9333737   0.98431521    5086.2218    263.32253 
 3955000   -5.2873812    1.4883571   -3.7990242    1.1195898   0.99248617    5086.2218    264.04793 
 3956000   -5.3023147    1.5241971   -3.7781175    1.0373835    1.0163855    5086.2218    264.86165 
 3957000    -5.288467    1.5304389    -3.758028    1.1627427    1.0205478    5086.2218    264.61589 
 3958000   -5.2763849    1.4881549     -3.78823    1.1363732   0.99235135    5086.2218    266.30877 
 3959000   -5.2864783    1.4908044   -3.7956739    1.1597402    0.9941181    5086.2218    266.48751 
 3960000   -5.2807569    1.4878253   -3.7929316    1.1288014   0.99213154    5086.2218    267.74733 
 3961000   -5.3042184    1.4167724    -3.887446   0.95221418   0.94475112    5086.2218    268.96037 
 3962000   -5.3093716    1.5064394   -3.8029322    1.0104424     1.004544    5086.2218    269.61209 
 3963000   -5.2981689    1.5038514   -3.7943174    1.1110748    1.0028183    5086.2218    270.28996 
 3964000   -5.3225065    1.4951864   -3.8273201   0.96093865   0.99704019    5086.2218    271.55699 
 3965000   -5.2893356    1.4799993   -3.8093363     1.084479   0.98691294    5086.2218     272.7528 
 3966000   -5.2769508     1.514254   -3.7626968    1.2175942    1.0097551    5086.2218    273.26635 
 3967000   -5.3033278    1.5455977   -3.7577301    1.0675595    1.0306561    5086.2218    273.54164 
 3968000   -5.2808956    1.5076057   -3.7732899    1.1539275    1.0053218    5086.2218    274.68828 
 3969000   -5.2991176    1.5065449   -3.7925727    1.0363152    1.0046144    5086.2218    275.83488 
 3970000   -5.2900248    1.5041018    -3.785923    1.0983169    1.0029853    5086.2218    276.54308 
 3971000   -5.3130084    1.4962692   -3.8167393    1.0556889   0.99776223    5086.2218    278.06665 
 3972000   -5.2861424    1.4680405   -3.8181019    1.1031664   0.97893838    5086.2218    279.25458 
 3973000   -5.3074343    1.4873759   -3.8200584   0.99983595   0.99183188    5086.2218    280.72879 
 3974000   -5.2923005    1.4859024   -3.8063981    1.0471513   0.99084932    5086.2218    282.00357 
 3975000   -5.3107709    1.5220594   -3.7887115    1.0155694      1.01496    5086.2218    283.59041 
 3976000   -5.2762488    1.4917705   -3.7844784    1.2076102   0.99476233    5086.2218    284.66251 
 3977000    -5.295062    1.5136608   -3.7814012    1.0959881    1.0093595    5086.2218    285.93957 
 3978000    -5.270492    1.4612744   -3.8092176    1.1805658   0.97442654    5086.2218    286.69036 
 3979000   -5.3255975    1.5005293   -3.8250682   0.95882446     1.000603    5086.2218    286.98835 
 3980000   -5.3058884    1.4701164    -3.835772    1.0278219   0.98032267    5086.2218    288.63602 
 3981000   -5.3120502    1.4822774   -3.8297727    1.0086871   0.98843207    5086.2218    289.63306 
 3982000   -5.3009793    1.5127122   -3.7882671    1.0460686     1.008727    5086.2218    289.95119 
 3983000   -5.2942498    1.5027427   -3.7915071    1.1036773     1.002079    5086.2218    289.71717 
 3984000   -5.2854624    1.4943449   -3.7911175    1.0931437   0.99647903    5086.2218     290.4354 
 3985000   -5.2809917    1.5167934   -3.7641984    1.2078231    1.0114484    5086.2218    291.01246 
 3986000   -5.3231742    1.5313521   -3.7918222   0.95231799    1.0211567    5086.2218    292.20332 
 3987000   -5.2825573    1.4778309   -3.8047264    1.1454546   0.98546695    5086.2218    292.67094 
 3988000   -5.3042958    1.4928155   -3.8114803    1.0585091   0.99545921    5086.2218    292.27276 
 3989000   -5.3018136    1.4696379   -3.8321757    1.0154002   0.98000362    5086.2218    293.01365 
 3990000   -5.3168178    1.5086046   -3.8082132    1.0319133    1.0059879    5086.2218    293.96619 
 3991000   -5.3032418    1.5022607    -3.800981    1.0647977    1.0017576    5086.2218    295.50195 
 3992000   -5.3022941    1.5097631   -3.7925309    1.0549688    1.0067604    5086.2218    295.53914 
 3993000   -5.2920648    1.5019388   -3.7901259    1.1073301    1.0015429    5086.2218    295.60092 
 3994000   -5.3170782    1.5353236   -3.7817546    1.0288347     1.023805    5086.2218    296.95876 
 3995000   -5.2974096    1.4941997   -3.8032099    1.0759692   0.99638225    5086.2218    297.49361 
 3996000   -5.2894261     1.505224   -3.7842022    1.1228892    1.0037336    5086.2218    298.09347 
 3997000   -5.2958393    1.5022601   -3.7935792    1.1233718    1.0017572    5086.2218    298.51049 
 3998000   -5.3112951    1.5057065   -3.8055885    1.0196576    1.0040554    5086.2218    299.43024 
 3999000    -5.313113    1.4823068   -3.8308062   0.96920235   0.98845162    5086.2218    300.31036 
 4000000   -5.2825743    1.4699435   -3.8126307    1.1124242   0.98020741    5086.2218    300.30454 
Loop time of 1613.32 on 2 procs for 400000 steps with 4000 atoms

Performance: 107108.117 tau/day, 247.935 timesteps/s
98.8% CPU use with 2 MPI tasks x no OpenMP threads

MPI task timing breakdown:
Section |  min time  |  avg time  |  max time  |%varavg| %total
---------------------------------------------------------------
Pair    | 1322.5     | 1346.7     | 1370.9     |  65.9 | 83.47
Neigh   | 137        | 137.58     | 138.16     |   4.9 |  8.53
Comm    | 75.456     | 100.25     | 125.04     | 247.6 |  6.21
Output  | 0.94245    | 0.94465    | 0.94685    |   0.2 |  0.06
Modify  | 23.228     | 23.229     | 23.23      |   0.0 |  1.44
Other   |            | 4.615      |            |       |  0.29

Nlocal:    2000 ave 2014 max 1986 min
Histogram: 1 0 0 0 0 0 0 0 0 1
Nghost:    5823 ave 5847 max 5799 min
Histogram: 1 0 0 0 0 0 0 0 0 1
Neighs:    179275 ave 180193 max 178357 min
Histogram: 1 0 0 0 0 0 0 0 0 1

Total # of neighbors = 358550
Ave neighs/atom = 89.6375
Neighbor list builds = 20000
Dangerous builds not checked
unfix     intnvt
unfix     rdfnvt
uncompute rdfnvt
uncompute msd
undump    idnvt

next      a
jump      in.melt temploop #it will again transfer the call to label temploop line
variable    a loop 11   #loop parameter defined
variable    temp equal 0.3+($a-1)*0.1   #temp value will increase at rate of 0.1 from 0.3 till 1.3
variable    temp equal 0.3+(9-1)*0.1   

log       log.lammps.npt.${temp}
log       log.lammps.npt.1.1
